 Gaussian 16, Revision C.01,
 Gaussian 16:  ES64L-G16RevC.01  3-Jul-2019

 -----------------------------
 #n B3LYP/6-31+G(d,p) Opt Freq
 -----------------------------

 --------
 SBn endo
 --------
 Symbolic Z-matrix:
 Charge =  0 Multiplicity = 1

 SCF Done:  E(RB3LYP) =  -1868.88570000     A.U. after   16 cycles
 SCF Done:  E(RB3LYP) =  -1868.89079996     A.U. after   14 cycles
 SCF Done:  E(RB3LYP) =  -1868.89185755     A.U. after   14 cycles
 SCF Done:  E(RB3LYP) =  -1868.89278168     A.U. after   16 cycles
 SCF Done:  E(RB3LYP) =  -1868.89324601     A.U. after   17 cycles
 SCF Done:  E(RB3LYP) =  -1868.89396441     A.U. after   14 cycles
 SCF Done:  E(RB3LYP) =  -1868.89441603     A.U. after   14 cycles
 SCF Done:  E(RB3LYP) =  -1868.89452394     A.U. after   14 cycles
 SCF Done:  E(RB3LYP) =  -1868.89457423     A.U. after   14 cycles
 SCF Done:  E(RB3LYP) =  -1868.89467846     A.U. after   14 cycles
 SCF Done:  E(RB3LYP) =  -1868.89569433     A.U. after   14 cycles
 SCF Done:  E(RB3LYP) =  -1868.89569724     A.U. after   12 cycles
 SCF Done:  E(RB3LYP) =  -1868.89569996     A.U. after   12 cycles
 SCF Done:  E(RB3LYP) =  -1868.89570090     A.U. after   12 cycles
 SCF Done:  E(RB3LYP) =  -1868.89570097     A.U. after   12 cycles
 SCF Done:  E(RB3LYP) =  -1868.89570107     A.U. after   11 cycles
 SCF Done:  E(RB3LYP) =  -1868.89570116     A.U. after   11 cycles
 SCF Done:  E(RB3LYP) =  -1868.89570121     A.U. after   11 cycles
 SCF Done:  E(RB3LYP) =  -1868.89570124     A.U. after   12 cycles
 Optimization completed.
    -- Stationary point found.
 Normal termination of Gaussian 16 at Wed May 21 11:15:01 2025.

 ----------------------------------------------------------------------
 #N Geom=AllCheck Guess=TCheck SCRF=Check GenChk RB3LYP/6-31+G(d,p) Fre
 q
 ----------------------------------------------------------------------

 Structure from the checkpoint file:  "SBn_endo_opt2.chk"
 --------
 SBn endo
 --------
 Charge =  0 Multiplicity = 1

                         Standard orientation:
 ---------------------------------------------------------------------
 Center     Atomic      Atomic             Coordinates (Angstroms)
 Number     Number       Type             X           Y           Z
 ---------------------------------------------------------------------
      1          6           0        5.804864   -1.929033   -0.297450
      2          6           0        4.541621   -2.525981   -0.236034
      3          6           0        3.399503   -1.739771   -0.080128
      4          6           0        3.501776   -0.342732    0.018326
      5          6           0        4.772285    0.245764   -0.051720
      6          6           0        5.917187   -0.540356   -0.206261
      7          1           0        6.692640   -2.542243   -0.420937
      8          1           0        6.892763   -0.066087   -0.259026
      9          1           0        2.422030   -2.212754   -0.054143
     10          1           0        4.445218   -3.604987   -0.314554
     11          1           0        4.865233    1.326754    0.013033
     12          6           0        2.287732    0.533890    0.224299
     13          6           0        1.547109    0.256487    1.542370
     14          8           0        0.253384    0.882640    1.551652
     15          1           0        2.109218    0.665079    2.387621
     16          1           0        1.409240   -0.820212    1.687818
     17         16           0       -0.497250    3.317854   -0.114403
     18          1           0       -1.212020   -1.348066    0.812854
     19         15           0       -0.397400    1.386306    0.117643
     20          6           0       -2.082718   -0.828117    0.426933
     21         16           0        1.008841    0.324773   -1.118092
     22          6           0       -1.978876    0.508265    0.019443
     23          1           0       -3.348302   -2.540680    0.680317
     24          6           0       -3.297209   -1.509820    0.351646
     25          1           0       -5.204733   -3.447765   -0.457783
     26          6           0       -3.121701    1.159726   -0.476542
     27          6           0       -4.430881   -0.848698   -0.146842
     28          1           0       -3.051710    2.197702   -0.785402
     29          6           0       -4.334604    0.490045   -0.560192
     30          6           0       -5.835623   -2.773737    0.134105
     31          8           0       -5.660518   -1.417432   -0.266286
     32          1           0       -5.617144   -2.904961    1.200710
     33          1           0       -6.885187   -3.002680   -0.051927
     34          1           0       -5.223093    0.983926   -0.939186
     35          1           0        2.595654    1.583102    0.201230
 ---------------------------------------------------------------------

 SCF Done:  E(RB3LYP) =  -1868.89570124     A.U. after    1 cycles

 The electronic state is 1-A.
 Alpha  occ. eigenvalues --  -88.89111 -88.83482 -77.20900 -19.20574 -19.19024
 Alpha  occ. eigenvalues --  -10.27531 -10.26994 -10.25918 -10.25220 -10.22512
 Alpha  occ. eigenvalues --  -10.22124 -10.21622 -10.21451 -10.21250 -10.21216
 Alpha  occ. eigenvalues --  -10.21173 -10.21120 -10.21084 -10.21033 -10.20552
 Alpha  occ. eigenvalues --   -7.95240  -7.89807  -6.66279  -5.91677  -5.91437
 Alpha  occ. eigenvalues --   -5.90720  -5.86350  -5.85606  -5.85539  -4.82714
 Alpha  occ. eigenvalues --   -4.82499  -4.82331  -1.08908  -1.06213  -0.88116
 Alpha  occ. eigenvalues --   -0.87586  -0.82676  -0.79728  -0.77334  -0.76494
 Alpha  occ. eigenvalues --   -0.76022  -0.75083  -0.71421  -0.69565  -0.64986
 Alpha  occ. eigenvalues --   -0.63182  -0.62517  -0.61799  -0.59304  -0.56963
 Alpha  occ. eigenvalues --   -0.55201  -0.53547  -0.50963  -0.50251  -0.49581
 Alpha  occ. eigenvalues --   -0.48796  -0.48620  -0.47044  -0.46787  -0.46284
 Alpha  occ. eigenvalues --   -0.44531  -0.43866  -0.43662  -0.43033  -0.42042
 Alpha  occ. eigenvalues --   -0.40308  -0.39822  -0.38843  -0.38629  -0.37499
 Alpha  occ. eigenvalues --   -0.36457  -0.36201  -0.35508  -0.34714  -0.34533
 Alpha  occ. eigenvalues --   -0.33626  -0.30905  -0.27641  -0.27188  -0.26859
 Alpha  occ. eigenvalues --   -0.26430  -0.24957  -0.23803  -0.22679
 Alpha virt. eigenvalues --   -0.05135  -0.04055  -0.02916  -0.02743  -0.01541
 Alpha virt. eigenvalues --   -0.00832  -0.00208   0.00798   0.01056   0.01208
 Alpha virt. eigenvalues --    0.02009   0.02225   0.02729   0.02987   0.03308

 Mulliken charges:
               1
     1  C   -0.083542
     2  C   -0.016569
     3  C   -0.118709
     4  C   -0.095481
     5  C   -0.022092
     6  C   -0.167541
     7  H    0.128951
     8  H    0.131299
     9  H    0.131520
    10  H    0.129700
    11  H    0.125268
    12  C   -0.344782
    13  C   -0.263354
    14  O   -0.222029
    15  H    0.161201
    16  H    0.149721
    17  S   -0.171078
    18  H    0.130927
    19  P    0.037561
    20  C   -0.377251
    21  S    0.160588
    22  C   -0.424291
    23  H    0.121511
    24  C    0.490311
    25  H    0.147873
    26  C    0.231515
    27  C   -0.051848
    28  H    0.159722
    29  C   -0.252331
    30  C   -0.125539
    31  O   -0.344814
    32  H    0.148263
    33  H    0.155072
    34  H    0.140600
    35  H    0.199648
 Sum of Mulliken charges =  -0.00000

 Dipole moment (field-independent basis, Debye):
    X=              0.5801    Y=             -6.0107    Z=              1.1948  Tot=              6.1557
 Quadrupole moment (field-independent basis, Debye-Ang):
   XX=           -112.3950   YY=           -139.0419   ZZ=           -146.8106
   XY=             10.6820   XZ=              1.4907   YZ=             -2.6827

  Exact polarizability:     347.674       1.335     266.970       3.429      -5.403     157.329
 Approx polarizability:     453.167       0.783     453.131       9.784     -10.393     262.394

                      1                      2                      3
                      A                      A                      A
 Frequencies --     18.1728                22.5367                29.8646
 Red. masses --      6.4021                 3.6147                 4.1196
 Frc consts  --      0.0012                 0.0011                 0.0022
 IR Inten    --      0.7295                 0.2444                 0.1222

                      4                      5                      6
                      A                      A                      A
 Frequencies --     55.4426                78.1027                89.9284
 Red. masses --      5.1881                 5.7700                 3.5496
 Frc consts  --      0.0094                 0.0207                 0.0169
 IR Inten    --      0.1593                 0.1957                 1.2245

                      7                      8                      9
                      A                      A                      A
 Frequencies --     99.9328               114.1022               153.4679
 Red. masses --      6.0979                 5.8344                 6.2856
 Frc consts  --      0.0359                 0.0448                 0.0872
 IR Inten    --      1.7366                 1.7237                 3.4851

                     10                     11                     12
                      A                      A                      A
 Frequencies --    178.4895               199.8133               217.9387
 Red. masses --      4.8205                 6.3904                 3.3057
 Frc consts  --      0.0905                 0.1503                 0.0925
 IR Inten    --      1.4084                 3.0374                 0.8544

                     13                     14                     15
                      A                      A                      A
 Frequencies --    231.8829               243.0186               271.8460
 Red. masses --      3.2533                 1.6677                 5.0322
 Frc consts  --      0.1031                 0.0580                 0.2191
 IR Inten    --      1.2754                 0.2434                 1.4771

                     16                     17                     18
                      A                      A                      A
 Frequencies --    278.5152               333.6762               350.1614
 Red. masses --      4.6081                 6.5763                 6.1028
 Frc consts  --      0.2106                 0.4314                 0.4409
 IR Inten    --      0.9119                 0.3134                 0.7160

                     19                     20                     21
                      A                      A                      A
 Frequencies --    364.8570               416.6344               420.9276
 Red. masses --      8.6975                 2.8942                 2.9950
 Frc consts  --      0.6822                 0.2960                 0.3126
 IR Inten    --     18.6024                 0.7560                 0.0643

                     22                     23                     24
                      A                      A                      A
 Frequencies --    436.0891               454.1106               489.0925
 Red. masses --      6.6165                13.2934                 4.3361
 Frc consts  --      0.7414                 1.6151                 0.6111
 IR Inten    --     18.3809                43.3700                 4.1107

                     25                     26                     27
                      A                      A                      A
 Frequencies --    520.4693               526.9101               540.8362
 Red. masses --      3.5580                 2.9535                 4.3865
 Frc consts  --      0.5679                 0.4831                 0.7560
 IR Inten    --     18.8427                 4.1619                84.1311

                     28                     29                     30
                      A                      A                      A
 Frequencies --    613.0717               629.2708               640.7982
 Red. masses --      6.8798                 6.3136                 7.2090
 Frc consts  --      1.5235                 1.4730                 1.7441
 IR Inten    --     29.3181                 2.5109                13.7412

                     31                     32                     33
                      A                      A                      A
 Frequencies --    644.4043               676.0199               690.6132
 Red. masses --      6.8958                 5.5699                 6.3491
 Frc consts  --      1.6872                 1.4997                 1.7842
 IR Inten    --     72.1505                18.0027                71.0187

                     34                     35                     36
                      A                      A                      A
 Frequencies --    711.3575               723.6487               758.8670
 Red. masses --      1.7249                 3.7259                 6.9742
 Frc consts  --      0.5143                 1.1496                 2.3663
 IR Inten    --     52.4572                 4.3097               196.0745

                     37                     38                     39
                      A                      A                      A
 Frequencies --    777.7001               816.3942               818.8591
 Red. masses --      2.2164                 1.3572                 5.8846
 Frc consts  --      0.7898                 0.5330                 2.3248
 IR Inten    --     11.9019                14.2356                36.8223

                     40                     41                     42
                      A                      A                      A
 Frequencies --    850.2828               857.7641               866.6256
 Red. masses --      1.5356                 1.2625                 4.3577
 Frc consts  --      0.6541                 0.5473                 1.9283
 IR Inten    --     34.4330                 0.5210                21.6066

                     43                     44                     45
                      A                      A                      A
 Frequencies --    930.1402               953.6948               984.6099
 Red. masses --      1.4238                 1.3256                 1.3837
 Frc consts  --      0.7258                 0.7104                 0.7904
 IR Inten    --      0.0840                 0.4815                 0.6759

                     46                     47                     48
                      A                      A                      A
 Frequencies --    990.7521               992.3536              1005.6553
 Red. masses --      1.7950                 1.3245                 1.3027
 Frc consts  --      1.0381                 0.7685                 0.7763
 IR Inten    --     14.3488                 0.3764                 0.6718

                     49                     50                     51
                      A                      A                      A
 Frequencies --   1014.4277              1022.2482              1035.4171
 Red. masses --      5.6784                 3.1603                 5.4737
 Frc consts  --      3.4428                 1.9458                 3.4575
 IR Inten    --      2.2734                 2.9385               154.3469

                     52                     53                     54
                      A                      A                      A
 Frequencies --   1051.4452              1059.4441              1060.0767
 Red. masses --      2.4991                 3.9857                 5.1447
 Frc consts  --      1.6278                 2.6358                 3.4063
 IR Inten    --     10.5591                75.7584                79.0146

                     55                     56                     57
                      A                      A                      A
 Frequencies --   1109.7003              1118.6435              1140.7433
 Red. masses --      1.6135                 3.4151                 1.3256
 Frc consts  --      1.1707                 2.5179                 1.0164
 IR Inten    --      6.5133               151.9666                 9.1668

                     58                     59                     60
                      A                      A                      A
 Frequencies --   1171.1700              1185.7339              1204.4998
 Red. masses --      1.2710                 1.1029                 1.2831
 Frc consts  --      1.0272                 0.9136                 1.0968
 IR Inten    --      0.8906                 0.0406                21.1457

                     61                     62                     63
                      A                      A                      A
 Frequencies --   1206.6935              1207.5202              1218.7787
 Red. masses --      1.2234                 1.1834                 2.1878
 Frc consts  --      1.0496                 1.0167                 1.9148
 IR Inten    --     34.1766                19.9736                 0.6781

                     64                     65                     66
                      A                      A                      A
 Frequencies --   1222.9827              1272.2657              1297.0311
 Red. masses --      1.1390                 1.4534                 4.0881
 Frc consts  --      1.0037                 1.3861                 4.0521
 IR Inten    --      8.2014                 9.6027               303.1783

                     67                     68                     69
                      A                      A                      A
 Frequencies --   1312.0261              1329.5928              1351.0384
 Red. masses --      1.4549                 1.3631                 6.0355
 Frc consts  --      1.4756                 1.4198                 6.4908
 IR Inten    --     10.3047                11.8051                58.3464

                     70                     71                     72
                      A                      A                      A
 Frequencies --   1361.2589              1365.6804              1400.4729
 Red. masses --      2.6431                 1.3903                 1.3319
 Frc consts  --      2.8857                 1.5278                 1.5391
 IR Inten    --      1.0405                 0.3954                 1.2227

                     73                     74                     75
                      A                      A                      A
 Frequencies --   1444.8821              1479.9346              1489.3068
 Red. masses --      3.0649                 1.1894                 2.1525
 Frc consts  --      3.7699                 1.5349                 2.8129
 IR Inten    --      7.3797                12.3864                 6.8236

                     76                     77                     78
                      A                      A                      A
 Frequencies --   1499.3396              1506.2090              1507.7892
 Red. masses --      1.0461                 1.0861                 1.0559
 Frc consts  --      1.3856                 1.4518                 1.4143
 IR Inten    --      8.9290                 2.7709                46.1577

                     79                     80                     81
                      A                      A                      A
 Frequencies --   1531.4067              1536.5957              1609.1511
 Red. masses --      2.2092                 2.2963                 6.5618
 Frc consts  --      3.0526                 3.1945                10.0108
 IR Inten    --     13.1243                90.3136                21.1477

                     82                     83                     84
                      A                      A                      A
 Frequencies --   1631.4941              1643.9848              1651.0927
 Red. masses --      5.4457                 5.5498                 5.5587
 Frc consts  --      8.5403                 8.8374                 8.9282
 IR Inten    --      0.9023               209.8762                 3.2821

                     85                     86                     87
                      A                      A                      A
 Frequencies --   3023.3035              3056.0510              3085.4179
 Red. masses --      1.0340                 1.0582                 1.0864
 Frc consts  --      5.5685                 5.8227                 6.0935
 IR Inten    --     57.9371                36.9778                 1.2615

                     88                     89                     90
                      A                      A                      A
 Frequencies --   3090.0146              3115.1403              3157.9740
 Red. masses --      1.1067                 1.1077                 1.1004
 Frc consts  --      6.2259                 6.3330                 6.4656
 IR Inten    --     32.9757                12.3627                20.6565

                     91                     92                     93
                      A                      A                      A
 Frequencies --   3177.9913              3182.7507              3191.4656
 Red. masses --      1.0862                 1.0874                 1.0906
 Frc consts  --      6.4636                 6.4902                 6.5451
 IR Inten    --      4.1450                 0.2140                 9.7774

                     94                     95                     96
                      A                      A                      A
 Frequencies --   3199.3187              3202.8583              3204.4273
 Red. masses --      1.0944                 1.0885                 1.0883
 Frc consts  --      6.6001                 6.5790                 6.5840
 IR Inten    --     23.2630                 3.2448                 0.9304

                     97                     98                     99
                      A                      A                      A
 Frequencies --   3208.4243              3217.1227              3226.6527
 Red. masses --      1.0983                 1.0948                 1.0926
 Frc consts  --      6.6610                 6.6762                 6.7021
 IR Inten    --     17.0734                 6.6941                 9.2610

 - Thermochemistry -
 -------------------
 Temperature   298.150 Kelvin.  Pressure   1.00000 Atm.
 Atom     1 has atomic number  6 and mass  12.00000

 Molecular mass:   322.02511 amu.
 Principal axes and moments of inertia in atomic units:
                           1         2         3
     Eigenvalues --  3549.70088********************
           X            0.99996   0.00863   0.00048
           Y           -0.00863   0.99994  -0.00645
           Z           -0.00054   0.00644   0.99998
 This molecule is an asymmetric top.
 Rotational symmetry number  1.
 Warning -- assumption of classical behavior for rotation
           may cause significant error
 Rotational temperatures (Kelvin)      0.02440     0.00615     0.00520
 Rotational constants (GHZ):           0.50842     0.12806     0.10825
 Zero-point vibrational energy     709736.6 (Joules/Mol)
                                  169.63112 (Kcal/Mol)
 Warning -- explicit consideration of  28 degrees of freedom as
           vibrations may cause significant error
 Vibrational temperatures:     26.15    32.43    42.97    79.77   112.37
          (Kelvin)            129.39   143.78   164.17   220.81   256.81
                              287.49   313.57   333.63   349.65   391.13
                              400.72   480.09   503.80   524.95   599.44
                              605.62   627.43   653.36   703.69   748.84
                              758.11   778.14   882.07   905.38   921.97
                              927.15   972.64   993.64  1023.48  1041.17
                             1091.84  1118.94  1174.61  1178.16  1223.37
                             1234.13  1246.88  1338.26  1372.15  1416.63
                             1425.47  1427.78  1446.91  1459.54  1470.79
                             1489.73  1512.80  1524.30  1525.21  1596.61
                             1609.48  1641.28  1685.05  1706.01  1733.01
                             1736.16  1737.35  1753.55  1759.60  1830.51
                             1866.14  1887.71  1912.99  1943.84  1958.55
                             1964.91  2014.97  2078.86  2129.30  2142.78
                             2157.22  2167.10  2169.37  2203.35  2210.82
                             2315.21  2347.36  2365.33  2375.55  4349.86
                             4396.98  4439.23  4445.84  4481.99  4543.62
                             4572.42  4579.27  4591.81  4603.11  4608.20
                             4610.46  4616.21  4628.72  4642.43

 Zero-point correction=                           0.270324 (Hartree/Particle)
 Thermal correction to Energy=                    0.289201
 Thermal correction to Enthalpy=                  0.290145
 Thermal correction to Gibbs Free Energy=         0.220073
 Sum of electronic and zero-point Energies=          -1868.625377
 Sum of electronic and thermal Energies=             -1868.606501
 Sum of electronic and thermal Enthalpies=           -1868.605556
 Sum of electronic and thermal Free Energies=        -1868.675628

                     E (Thermal)             CV                S
                      KCal/Mol        Cal/Mol-Kelvin    Cal/Mol-Kelvin
 Total                  181.476             71.291            147.478
 Electronic               0.000              0.000              0.000
 Translational            0.889              2.981             43.204
 Rotational               0.889              2.981             35.077
 Vibrational            179.699             65.329             69.197
 Vibration     1          0.593              1.986              6.824
 Vibration     2          0.593              1.985              6.397
 Vibration     3          0.594              1.984              5.838
 Vibration     4          0.596              1.975              4.613
 Vibration     5          0.599              1.964              3.938
 Vibration     6          0.602              1.956              3.662
 Vibration     7          0.604              1.949              3.456
 Vibration     8          0.607              1.938              3.198
 Vibration     9          0.619              1.899              2.629
 Vibration    10          0.629              1.869              2.344
 Vibration    11          0.638              1.840              2.135
 Vibration    12          0.646              1.814              1.976
 Vibration    13          0.653              1.792              1.864
 Vibration    14          0.659              1.774              1.781
 Vibration    15          0.675              1.725              1.584
 Vibration    16          0.679              1.713              1.543
 Vibration    17          0.715              1.608              1.242
 Vibration    18          0.727              1.575              1.165
 Vibration    19          0.738              1.545              1.101
 Vibration    20          0.780              1.434              0.903
 Vibration    21          0.783              1.425              0.889
 Vibration    22          0.797              1.392              0.839
 Vibration    23          0.813              1.352              0.783
 Vibration    24          0.845              1.274              0.686
 Vibration    25          0.875              1.205              0.609
 Vibration    26          0.882              1.190              0.594
 Vibration    27          0.896              1.160              0.563
 Vibration    28          0.972              1.004              0.428

 Optimization completed.
    -- Stationary point found.
 Normal termination of Gaussian 16 at Wed May 21 11:27:53 2025.
