 Gaussian 16, Revision C.01,
 Gaussian 16:  ES64L-G16RevC.01  3-Jul-2019

 ----------------------------------------------------------------------
 #n #n nmr=giao wb97xd/aug-cc-pvdz scrf=(cpcm,solvent=Chloroform) integ
 ral=(acc2e=14,grid=superfinegrid)
 ----------------------------------------------------------------------

 -----------
 OBn cis NMR
 -----------
 Symbolic Z-matrix:
 Charge =  0 Multiplicity = 1

                         Standard orientation:
 ---------------------------------------------------------------------
 Center     Atomic      Atomic             Coordinates (Angstroms)
 Number     Number       Type             X           Y           Z
 ---------------------------------------------------------------------
      1          6           0       -5.074170   -2.546951   -0.534509
      2          6           0       -3.706810   -2.832931   -0.484089
      3          6           0       -2.778420   -1.806811   -0.295359
      4          6           0       -3.210290   -0.481131   -0.158959
      5          6           0       -4.581020   -0.198481   -0.221919
      6          6           0       -5.509800   -1.225851   -0.403769
      7          1           0       -5.794000   -3.346411   -0.683639
      8          1           0       -6.569310   -0.992342   -0.453729
      9          1           0       -1.716340   -2.027170   -0.276209
     10          1           0       -3.360760   -3.856231   -0.598029
     11          1           0       -4.924531    0.829849   -0.136759
     12          6           0       -2.237721    0.646160    0.104631
     13          6           0       -1.974581    0.861110    1.606701
     14          8           0       -0.963711    0.344200   -0.501849
     15          1           0       -2.623371    1.576319   -0.331529
     16         16           0       -0.502491    1.963380    1.773511
     17          1           0        2.869669    1.552851   -1.406569
     18         15           0        0.228589    1.449320   -0.194159
     19          6           0        2.850789    0.681231   -0.760109
     20         16           0        0.409169    2.952210   -1.420379
     21          6           0        1.685779    0.382390   -0.047339
     22          1           0        4.869809    0.126981   -1.225599
     23          6           0        3.984020   -0.129269   -0.657369
     24          1           0        6.061890   -1.896468   -1.433679
     25          6           0        1.672540   -0.747480    0.793541
     26          6           0        3.955430   -1.255659    0.175521
     27          1           0        0.784150   -0.989870    1.367451
     28          6           0        2.789790   -1.559909    0.902561
     29          6           0        6.214750   -1.866398   -0.348309
     30          8           0        4.997110   -2.111789    0.351391
     31          1           0        6.648580   -0.900578   -0.063219
     32          1           0        6.890600   -2.669598   -0.053959
     33          1           0        2.790500   -2.433599    1.545831
     34          1           0       -1.786250   -0.094660    2.102821
     35          1           0       -2.825231    1.352279    2.085421
 ---------------------------------------------------------------------

 SCF Done:  E(RwB97XD) =  -1868.71501691     A.U. after   16 cycles

      1  C    Isotropic =    66.6034   Anisotropy =   180.4645

      2  C    Isotropic =    66.4973   Anisotropy =   181.0181

      3  C    Isotropic =    70.4417   Anisotropy =   179.7832

      4  C    Isotropic =    55.2194   Anisotropy =   173.0844

      5  C    Isotropic =    68.3642   Anisotropy =   167.2323

      6  C    Isotropic =    66.8143   Anisotropy =   179.7101

      7  H    Isotropic =    23.7680   Anisotropy =     4.4503

      8  H    Isotropic =    23.7337   Anisotropy =     5.1127

      9  H    Isotropic =    23.5035   Anisotropy =    11.0963

     10  H    Isotropic =    23.7124   Anisotropy =     6.3969

     11  H    Isotropic =    23.8212   Anisotropy =     9.1162

     12  C    Isotropic =   112.5045   Anisotropy =    51.5338

     13  C    Isotropic =   144.2057   Anisotropy =    43.5811

     14  O    Isotropic =   180.2170   Anisotropy =   106.4012

     15  H    Isotropic =    25.8625   Anisotropy =     9.4370

     16  S    Isotropic =   439.9544   Anisotropy =   410.9504

     17  H    Isotropic =    22.8757   Anisotropy =    12.1447

     18  P    Isotropic =   263.0366   Anisotropy =   228.4559

     19  C    Isotropic =    57.2647   Anisotropy =   193.4247

     20  S    Isotropic =   624.9186   Anisotropy =   205.4024

     21  C    Isotropic =    67.4335   Anisotropy =   137.2675

     22  H    Isotropic =    24.3218   Anisotropy =     7.9513

     23  C    Isotropic =    87.1161   Anisotropy =   149.8690

     24  H    Isotropic =    27.7174   Anisotropy =     8.1637

     25  C    Isotropic =    62.1796   Anisotropy =   182.9861

     26  C    Isotropic =    30.7179   Anisotropy =   140.6039

     27  H    Isotropic =    23.3887   Anisotropy =    11.4218

     28  C    Isotropic =    78.4591   Anisotropy =   142.4281

     29  C    Isotropic =   141.7345   Anisotropy =    71.6014

     30  O    Isotropic =   232.5886   Anisotropy =    87.0622

     31  H    Isotropic =    27.7251   Anisotropy =     8.2661

     32  H    Isotropic =    27.3819   Anisotropy =     8.7230

     33  H    Isotropic =    24.1251   Anisotropy =     6.8450

     34  H    Isotropic =    28.1718   Anisotropy =     7.3375

     35  H    Isotropic =    27.9826   Anisotropy =     9.7250

 The electronic state is 1-A.
 Alpha  occ. eigenvalues --  -89.06575 -89.01578 -77.38639 -19.31992 -19.31898
 Alpha  occ. eigenvalues --  -10.38737 -10.38508 -10.35459 -10.34983 -10.32942
 Alpha  occ. eigenvalues --  -10.32846 -10.32787 -10.32571 -10.31647 -10.31570
 Alpha  occ. eigenvalues --  -10.31420 -10.31250 -10.31233 -10.31182 -10.31125
 Alpha  occ. eigenvalues --   -8.08320  -8.03529  -6.80025  -6.03221  -6.02922
 Alpha  occ. eigenvalues --   -6.02254  -5.98513  -5.97784  -5.97694  -4.94961
 Alpha  occ. eigenvalues --   -4.94761  -4.94594  -1.18890  -1.17635  -0.98096
 Alpha  occ. eigenvalues --   -0.97464  -0.91807  -0.90520  -0.87617  -0.86877
 Alpha  occ. eigenvalues --   -0.85812  -0.84672  -0.80497  -0.79619  -0.73078
 Alpha  occ. eigenvalues --   -0.72954  -0.71728  -0.70997  -0.69012  -0.66304
 Alpha  occ. eigenvalues --   -0.64083  -0.62416  -0.60796  -0.59393  -0.58093
 Alpha  occ. eigenvalues --   -0.56932  -0.56260  -0.55106  -0.54291  -0.53345
 Alpha  occ. eigenvalues --   -0.53171  -0.52715  -0.51552  -0.51360  -0.51055
 Alpha  occ. eigenvalues --   -0.48722  -0.47880  -0.47119  -0.46688  -0.45784
 Alpha  occ. eigenvalues --   -0.45465  -0.44005  -0.43174  -0.42620  -0.42588
 Alpha  occ. eigenvalues --   -0.42113  -0.40063  -0.35641  -0.34816  -0.34206
 Alpha  occ. eigenvalues --   -0.34068  -0.33559  -0.32437  -0.31182
 Alpha virt. eigenvalues --    0.00928   0.03218   0.03361   0.03618   0.03849
 Alpha virt. eigenvalues --    0.04212   0.04329   0.04503   0.04854   0.05255
 Alpha virt. eigenvalues --    0.05687   0.05942   0.06082   0.06590   0.07187

 Mulliken charges:
               1
     1  C    0.690482
     2  C   -0.000899
     3  C    0.921316
     4  C    1.279866
     5  C    0.840748
     6  C    0.245683
     7  H   -0.598058
     8  H   -0.612990
     9  H   -0.915497
    10  H   -0.646627
    11  H   -0.882685
    12  C    0.834540
    13  C    0.463943
    14  O   -0.838100
    15  H   -0.532259
    16  S   -0.048206
    17  H   -0.904082
    18  P    0.435734
    19  C    0.503605
    20  S   -0.590094
    21  C    0.305195
    22  H   -1.058140
    23  C    1.124740
    24  H   -0.101045
    25  C    1.521026
    26  C    0.786424
    27  H   -1.003772
    28  C    0.444521
    29  C    0.946092
    30  O   -0.707578
    31  H   -0.100974
    32  H   -0.402677
    33  H   -0.826604
    34  H   -0.304609
    35  H   -0.269018
 Sum of Mulliken charges =  -0.00000

 Dipole moment (field-independent basis, Debye):
    X=              0.5484    Y=             -5.0875    Z=              2.1966  Tot=              5.5685
 Quadrupole moment (field-independent basis, Debye-Ang):
   XX=            -92.3103   YY=           -148.2700   ZZ=           -144.7487
   XY=             -4.8178   XZ=             -9.7319   YZ=              4.7271

 1\1\GINC-R175\SP\RwB97XD\Aug-CC-pVDZ\C15H15O2P1S2\ZLAB\23-May-2025\0\\
 #n #n nmr=giao wb97xd/aug-cc-pvdz scrf=(cpcm,solvent=Chloroform) integ
 ral=(acc2e=14,grid=superfinegrid)\\OBn cis NMR\\0,1\C,0,-5.07417,-2.54
 695,-0.53451\C,0,-3.70681,-2.83293,-0.48409\C,0,-2.77842,-1.80681,-0.2
 9536\C,0,-3.21029,-0.48113,-0.15896\C,0,-4.58102,-0.19848,-0.22192\C,0
 ,-5.5098,-1.22585,-0.40377\H,0,-5.794,-3.34641,-0.68364\H,0,-6.56931,-
 0.99234,-0.45373\H,0,-1.71634,-2.02717,-0.27621\H,0,-3.36076,-3.85623,
 -0.59803\H,0,-4.92453,0.82985,-0.13676\C,0,-2.23772,0.64616,0.10463\C,

 Normal termination of Gaussian 16 at Fri May 23 06:56:46 2025.
