 Gaussian 16, Revision C.01,
 Gaussian 16:  ES64L-G16RevC.01  3-Jul-2019

 ----------------------------------------------------------------------
 #n nmr=giao wb97xd/aug-cc-pvdz scrf=(cpcm,solvent=Chloroform) integral
 =(acc2e=14,grid=superfinegrid)
 ----------------------------------------------------------------------

 -----------
 SBn cis NMR
 -----------
 Symbolic Z-matrix:
 Charge =  0 Multiplicity = 1

                         Standard orientation:
 ---------------------------------------------------------------------
 Center     Atomic      Atomic             Coordinates (Angstroms)
 Number     Number       Type             X           Y           Z
 ---------------------------------------------------------------------
      1          6           0        5.804861   -1.929029   -0.297450
      2          6           0        4.541621   -2.525979   -0.236030
      3          6           0        3.399501   -1.739769   -0.080130
      4          6           0        3.501780   -0.342729    0.018330
      5          6           0        4.772290    0.245761   -0.051720
      6          6           0        5.917190   -0.540359   -0.206260
      7          1           0        6.692641   -2.542239   -0.420940
      8          1           0        6.892760   -0.066089   -0.259030
      9          1           0        2.422031   -2.212749   -0.054140
     10          1           0        4.445221   -3.604989   -0.314550
     11          1           0        4.865230    1.326751    0.013030
     12          6           0        2.287730    0.533891    0.224300
     13          6           0        1.547110    0.256490    1.542370
     14          8           0        0.253380    0.882640    1.551650
     15          1           0        2.109220    0.665080    2.387620
     16          1           0        1.409240   -0.820210    1.687820
     17         16           0       -0.497250    3.317850   -0.114400
     18          1           0       -1.212020   -1.348070    0.812850
     19         15           0       -0.397400    1.386310    0.117640
     20          6           0       -2.082720   -0.828120    0.426930
     21         16           0        1.008840    0.324770   -1.118090
     22          6           0       -1.978880    0.508260    0.019440
     23          1           0       -3.348299   -2.540680    0.680320
     24          6           0       -3.297210   -1.509820    0.351650
     25          1           0       -5.204729   -3.447760   -0.457780
     26          6           0       -3.121700    1.159730   -0.476540
     27          6           0       -4.430880   -0.848700   -0.146840
     28          1           0       -3.051710    2.197700   -0.785400
     29          6           0       -4.334600    0.490050   -0.560190
     30          6           0       -5.835619   -2.773740    0.134110
     31          8           0       -5.660520   -1.417430   -0.266290
     32          1           0       -5.617139   -2.904960    1.200710
     33          1           0       -6.885189   -3.002681   -0.051930
     34          1           0       -5.223090    0.983930   -0.939190
     35          1           0        2.595650    1.583101    0.201230
 ---------------------------------------------------------------------

 SCF Done:  E(RwB97XD) =  -1868.71031285     A.U. after   16 cycles

      1  C    Isotropic =    65.8779   Anisotropy =   181.8282

      2  C    Isotropic =    66.3401   Anisotropy =   180.4674

      3  C    Isotropic =    66.6868   Anisotropy =   179.9130

      4  C    Isotropic =    59.9206   Anisotropy =   171.6559

      5  C    Isotropic =    64.6795   Anisotropy =   159.7387

      6  C    Isotropic =    66.4145   Anisotropy =   179.4634

      7  H    Isotropic =    23.7390   Anisotropy =     4.4281

      8  H    Isotropic =    23.7246   Anisotropy =     5.2238

      9  H    Isotropic =    23.4655   Anisotropy =    11.5263

     10  H    Isotropic =    23.6997   Anisotropy =     6.0727

     11  H    Isotropic =    23.6914   Anisotropy =     8.9550

     12  C    Isotropic =   133.1406   Anisotropy =    30.6932

     13  C    Isotropic =   117.3309   Anisotropy =    66.4021

     14  O    Isotropic =   196.3450   Anisotropy =   140.4509

     15  H    Isotropic =    26.7689   Anisotropy =     6.0144

     16  H    Isotropic =    27.1813   Anisotropy =     8.2776

     17  S    Isotropic =   607.8776   Anisotropy =   123.2624

     18  H    Isotropic =    23.2598   Anisotropy =    11.6992

     19  P    Isotropic =   256.2672   Anisotropy =   222.2251

     20  C    Isotropic =    61.2292   Anisotropy =   185.2344

     21  S    Isotropic =   400.9179   Anisotropy =   331.4498

     22  C    Isotropic =    67.5504   Anisotropy =   136.4011

     23  H    Isotropic =    24.2306   Anisotropy =     8.4971

     24  C    Isotropic =    85.9930   Anisotropy =   150.2927

     25  H    Isotropic =    27.7220   Anisotropy =     8.0548

     26  C    Isotropic =    58.1074   Anisotropy =   189.3629

     27  C    Isotropic =    30.6828   Anisotropy =   140.6145

     28  H    Isotropic =    23.0416   Anisotropy =    11.4259

     29  C    Isotropic =    79.6543   Anisotropy =   142.4423

     30  C    Isotropic =   141.5560   Anisotropy =    70.8548

     31  O    Isotropic =   233.3815   Anisotropy =    85.7244

     32  H    Isotropic =    27.7220   Anisotropy =     8.0635

     33  H    Isotropic =    27.3866   Anisotropy =     8.6714

     34  H    Isotropic =    24.2300   Anisotropy =     6.2682

     35  H    Isotropic =    26.1864   Anisotropy =     9.2466

 The electronic state is 1-A.
 Alpha  occ. eigenvalues --  -89.06623 -89.01425 -77.38640 -19.31971 -19.31528
 Alpha  occ. eigenvalues --  -10.38509 -10.37603 -10.36247 -10.35489 -10.33102
 Alpha  occ. eigenvalues --  -10.33095 -10.32831 -10.32644 -10.31820 -10.31569
 Alpha  occ. eigenvalues --  -10.31556 -10.31423 -10.31389 -10.31382 -10.31333
 Alpha  occ. eigenvalues --   -8.08357  -8.03383  -6.80010  -6.03228  -6.02994
 Alpha  occ. eigenvalues --   -6.02285  -5.98365  -5.97624  -5.97563  -4.94956
 Alpha  occ. eigenvalues --   -4.94745  -4.94577  -1.18879  -1.17069  -0.98106
 Alpha  occ. eigenvalues --   -0.98008  -0.92715  -0.90125  -0.87347  -0.86061
 Alpha  occ. eigenvalues --   -0.85956  -0.84792  -0.80651  -0.79996  -0.74394
 Alpha  occ. eigenvalues --   -0.72674  -0.71502  -0.71136  -0.68357  -0.66442
 Alpha  occ. eigenvalues --   -0.63856  -0.62245  -0.59848  -0.58980  -0.58386
 Alpha  occ. eigenvalues --   -0.57480  -0.56939  -0.55544  -0.55081  -0.54702
 Alpha  occ. eigenvalues --   -0.52850  -0.51845  -0.51704  -0.51271  -0.50292
 Alpha  occ. eigenvalues --   -0.49139  -0.48447  -0.47237  -0.47050  -0.45764
 Alpha  occ. eigenvalues --   -0.44590  -0.43758  -0.43593  -0.42723  -0.42586
 Alpha  occ. eigenvalues --   -0.41970  -0.39448  -0.35856  -0.34993  -0.34374
 Alpha  occ. eigenvalues --   -0.34230  -0.33165  -0.32401  -0.31140
 Alpha virt. eigenvalues --    0.00818   0.02579   0.03280   0.03673   0.03820
 Alpha virt. eigenvalues --    0.03943   0.04368   0.04711   0.04819   0.05217
 Alpha virt. eigenvalues --    0.05531   0.05762   0.06186   0.06391   0.07224

 Mulliken charges:
               1
     1  C    0.605840
     2  C   -0.213547
     3  C    0.986954
     4  C    1.440047
     5  C    0.813333
     6  C    0.404274
     7  H   -0.590581
     8  H   -0.607810
     9  H   -0.977364
    10  H   -0.642963
    11  H   -0.841940
    12  C    0.565103
    13  C    1.101602
    14  O   -0.797479
    15  H   -0.371781
    16  H   -0.367462
    17  S   -0.635235
    18  H   -0.983440
    19  P    0.786592
    20  C    0.903117
    21  S   -0.215470
    22  C    0.093706
    23  H   -1.071722
    24  C    0.917990
    25  H   -0.103105
    26  C    1.148266
    27  C    0.495841
    28  H   -0.929212
    29  C    0.873742
    30  C    0.956211
    31  O   -0.713687
    32  H   -0.101792
    33  H   -0.396395
    34  H   -0.787779
    35  H   -0.743854
 Sum of Mulliken charges =  -0.00000

 Dipole moment (field-independent basis, Debye):
    X=              0.8143    Y=             -7.8124    Z=              1.7166  Tot=              8.0401
 Quadrupole moment (field-independent basis, Debye-Ang):
   XX=           -105.1927   YY=           -138.8173   ZZ=           -145.4206
   XY=             12.8200   XZ=              2.0109   YZ=             -2.9087

 1\1\GINC-R063\SP\RwB97XD\Aug-CC-pVDZ\C15H15O2P1S2\ZLAB\23-May-2025\0\\
 #n nmr=giao wb97xd/aug-cc-pvdz scrf=(cpcm,solvent=Chloroform) integral
 =(acc2e=14,grid=superfinegrid)\\SBn cis NMR\\0,1\C,0,5.80486,-1.92903,
 -0.29745\C,0,4.54162,-2.52598,-0.23603\C,0,3.3995,-1.73977,-0.08013\C,
 0,3.50178,-0.34273,0.01833\C,0,4.77229,0.24576,-0.05172\C,0,5.91719,-0
 .54036,-0.20626\H,0,6.69264,-2.54224,-0.42094\H,0,6.89276,-0.06609,-0.
 25903\H,0,2.42203,-2.21275,-0.05414\H,0,4.44522,-3.60499,-0.31455\H,0,
 4.86523,1.32675,0.01303\C,0,2.28773,0.53389,0.2243\C,0,1.54711,0.25649

 Normal termination of Gaussian 16 at Fri May 23 06:33:05 2025.
