 Gaussian 16, Revision C.01,
 Gaussian 16:  ES64L-G16RevC.01  3-Jul-2019

 -----------------------------
 #n B3LYP/6-31+G(d,p) Opt Freq
 -----------------------------

 --------------------
 OBn cis optimization
 --------------------
 Symbolic Z-matrix:
 Charge =  0 Multiplicity = 1

 SCF Done:  E(RB3LYP) =  -1868.88927317     A.U. after   17 cycles
 SCF Done:  E(RB3LYP) =  -1868.89569702     A.U. after   14 cycles
 SCF Done:  E(RB3LYP) =  -1868.89695472     A.U. after   15 cycles
 SCF Done:  E(RB3LYP) =  -1868.89726893     A.U. after   14 cycles
 SCF Done:  E(RB3LYP) =  -1868.89765662     A.U. after   17 cycles
 SCF Done:  E(RB3LYP) =  -1868.89784407     A.U. after   15 cycles
 SCF Done:  E(RB3LYP) =  -1868.89815644     A.U. after   17 cycles
 SCF Done:  E(RB3LYP) =  -1868.89858741     A.U. after   17 cycles
 SCF Done:  E(RB3LYP) =  -1868.89884353     A.U. after   17 cycles
 SCF Done:  E(RB3LYP) =  -1868.89889061     A.U. after   18 cycles
 SCF Done:  E(RB3LYP) =  -1868.90054040     A.U. after   18 cycles
 SCF Done:  E(RB3LYP) =  -1868.90057148     A.U. after   14 cycles
 SCF Done:  E(RB3LYP) =  -1868.90057923     A.U. after   17 cycles
 SCF Done:  E(RB3LYP) =  -1868.90062314     A.U. after   15 cycles
 SCF Done:  E(RB3LYP) =  -1868.90062219     A.U. after   13 cycles
 SCF Done:  E(RB3LYP) =  -1868.90062714     A.U. after   13 cycles
 SCF Done:  E(RB3LYP) =  -1868.90062722     A.U. after   12 cycles
 SCF Done:  E(RB3LYP) =  -1868.90062731     A.U. after   12 cycles
 SCF Done:  E(RB3LYP) =  -1868.90062741     A.U. after   12 cycles
 Optimization completed.
    -- Stationary point found.
 Normal termination of Gaussian 16 at Thu May 22 11:28:07 2025.

 ----------------------------------------------------------------------
 #N Geom=AllCheck Guess=TCheck SCRF=Check GenChk RB3LYP/6-31+G(d,p) Fre
 q
 ----------------------------------------------------------------------

 Structure from the checkpoint file:  "OBn_cis_opt.chk"
 --------------------
 OBn cis optimization
 --------------------
 Charge =  0 Multiplicity = 1

                         Standard orientation:
 ---------------------------------------------------------------------
 Center     Atomic      Atomic             Coordinates (Angstroms)
 Number     Number       Type             X           Y           Z
 ---------------------------------------------------------------------
      1          6           0       -5.074170   -2.546952   -0.534511
      2          6           0       -3.706811   -2.832928   -0.484092
      3          6           0       -2.778423   -1.806812   -0.295365
      4          6           0       -3.210290   -0.481132   -0.158963
      5          6           0       -4.581017   -0.198484   -0.221921
      6          6           0       -5.509802   -1.225848   -0.403767
      7          1           0       -5.793997   -3.346408   -0.683637
      8          1           0       -6.569307   -0.992342   -0.453726
      9          1           0       -1.716338   -2.027168   -0.276206
     10          1           0       -3.360761   -3.856234   -0.598035
     11          1           0       -4.924534    0.829849   -0.136764
     12          6           0       -2.237724    0.646155    0.104632
     13          6           0       -1.974577    0.861109    1.606699
     14          8           0       -0.963705    0.344204   -0.501846
     15          1           0       -2.623374    1.576323   -0.331526
     16         16           0       -0.502493    1.963383    1.773515
     17          1           0        2.869669    1.552851   -1.406568
     18         15           0        0.228589    1.449317   -0.194157
     19          6           0        2.850785    0.681227   -0.760111
     20         16           0        0.409174    2.952214   -1.420379
     21          6           0        1.685784    0.382392   -0.047342
     22          1           0        4.869812    0.126985   -1.225597
     23          6           0        3.984019   -0.129273   -0.657368
     24          1           0        6.061892   -1.896471   -1.433682
     25          6           0        1.672535   -0.747480    0.793536
     26          6           0        3.955429   -1.255657    0.175525
     27          1           0        0.784148   -0.989870    1.367453
     28          6           0        2.789785   -1.559909    0.902556
     29          6           0        6.214751   -1.866397   -0.348307
     30          8           0        4.997108   -2.111794    0.351394
     31          1           0        6.648584   -0.900584   -0.063222
     32          1           0        6.890599   -2.669597   -0.053964
     33          1           0        2.790499   -2.433602    1.545832
     34          1           0       -1.786255   -0.094660    2.102816
     35          1           0       -2.825230    1.352278    2.085417
 ---------------------------------------------------------------------

 SCF Done:  E(RB3LYP) =  -1868.90062741     A.U. after    1 cycles

 The electronic state is 1-A.
 Alpha  occ. eigenvalues --  -88.89031 -88.83720 -77.20991 -19.20631 -19.19377
 Alpha  occ. eigenvalues --  -10.27910 -10.27584 -10.25879 -10.24203 -10.21973
 Alpha  occ. eigenvalues --  -10.21854 -10.21726 -10.21658 -10.21067 -10.20973
 Alpha  occ. eigenvalues --  -10.20854 -10.20821 -10.20736 -10.20671 -10.20580
 Alpha  occ. eigenvalues --   -7.95206  -7.90036  -6.66376  -5.91668  -5.91367
 Alpha  occ. eigenvalues --   -5.90682  -5.86582  -5.85854  -5.85749  -4.82802
 Alpha  occ. eigenvalues --   -4.82599  -4.82432  -1.08952  -1.06818  -0.87745
 Alpha  occ. eigenvalues --   -0.87343  -0.81776  -0.80147  -0.77728  -0.76946
 Alpha  occ. eigenvalues --   -0.76109  -0.74707  -0.71206  -0.69431  -0.63637
 Alpha  occ. eigenvalues --   -0.63438  -0.62497  -0.61791  -0.59873  -0.56876
 Alpha  occ. eigenvalues --   -0.55365  -0.53573  -0.51858  -0.50595  -0.49253
 Alpha  occ. eigenvalues --   -0.48786  -0.47827  -0.46712  -0.45790  -0.44904
 Alpha  occ. eigenvalues --   -0.44513  -0.44333  -0.43516  -0.43440  -0.42788
 Alpha  occ. eigenvalues --   -0.40090  -0.39377  -0.38816  -0.38400  -0.37668
 Alpha  occ. eigenvalues --   -0.36852  -0.36017  -0.35228  -0.34736  -0.34520
 Alpha  occ. eigenvalues --   -0.33861  -0.31521  -0.27651  -0.26835  -0.26444
 Alpha  occ. eigenvalues --   -0.26243  -0.25318  -0.23973  -0.22810
 Alpha virt. eigenvalues --   -0.05091  -0.03318  -0.02916  -0.02587  -0.01759
 Alpha virt. eigenvalues --   -0.00418  -0.00334   0.00513   0.00892   0.01266
 Alpha virt. eigenvalues --    0.01967   0.02355   0.03041   0.03181   0.03579

 Mulliken charges:
               1
     1  C   -0.051767
     2  C   -0.471502
     3  C    0.498702
     4  C    0.210985
     5  C   -0.221107
     6  C   -0.243086
     7  H    0.127282
     8  H    0.129591
     9  H    0.142924
    10  H    0.129431
    11  H    0.119989
    12  C   -0.395220
    13  C   -0.604828
    14  O   -0.113268
    15  H    0.161254
    16  S    0.220838
    17  H    0.159014
    18  P   -0.157954
    19  C   -0.245646
    20  S   -0.164959
    21  C   -0.279847
    22  H    0.125007
    23  C    0.371501
    24  H    0.149404
    25  C    0.116481
    26  C   -0.151575
    27  H    0.125912
    28  C   -0.055809
    29  C   -0.120195
    30  O   -0.344267
    31  H    0.149495
    32  H    0.154349
    33  H    0.137432
    34  H    0.197438
    35  H    0.194002
 Sum of Mulliken charges =  -0.00000

 Dipole moment (field-independent basis, Debye):
    X=              0.6640    Y=             -3.9181    Z=              1.3331  Tot=              4.1916
 Quadrupole moment (field-independent basis, Debye-Ang):
   XX=           -101.1823   YY=           -147.8238   ZZ=           -146.1035
   XY=             -3.6120   XZ=             -8.1573   YZ=              3.4816

  Exact polarizability:     323.409     -10.360     251.985     -11.887     -15.048     184.647
 Approx polarizability:     428.780     -20.268     412.319     -25.069     -43.045     316.843

                      1                      2                      3
                      A                      A                      A
 Frequencies --     18.4570                22.8169                27.4943
 Red. masses --      3.8113                 4.7551                 4.2994
 Frc consts  --      0.0008                 0.0015                 0.0019
 IR Inten    --      0.3889                 0.8546                 0.2930

                      4                      5                      6
                      A                      A                      A
 Frequencies --     60.8206                74.5418                90.4373
 Red. masses --      5.3075                 5.6167                 3.8419
 Frc consts  --      0.0116                 0.0184                 0.0185
 IR Inten    --      0.4681                 0.5703                 1.9571

                      7                      8                      9
                      A                      A                      A
 Frequencies --    110.5297               114.8958               154.8339
 Red. masses --      7.8970                 4.5972                 6.0307
 Frc consts  --      0.0568                 0.0358                 0.0852
 IR Inten    --      2.3829                 2.1203                 2.6034

                     10                     11                     12
                      A                      A                      A
 Frequencies --    181.5269               192.1073               207.4060
 Red. masses --      4.2051                 4.7466                 5.2887
 Frc consts  --      0.0816                 0.1032                 0.1340
 IR Inten    --      0.0491                 4.4400                 0.2014

                     13                     14                     15
                      A                      A                      A
 Frequencies --    239.8066               261.9588               271.0225
 Red. masses --      1.3805                 5.7276                 5.6355
 Frc consts  --      0.0468                 0.2316                 0.2439
 IR Inten    --      0.1687                 0.7647                 0.6459

                     16                     17                     18
                      A                      A                      A
 Frequencies --    300.1636               318.0949               353.8156
 Red. masses --      4.3572                 5.0494                 8.8342
 Frc consts  --      0.2313                 0.3010                 0.6516
 IR Inten    --      3.1871                 1.1190                 5.6111

                     19                     20                     21
                      A                      A                      A
 Frequencies --    369.3181               415.0212               423.1773
 Red. masses --      5.9294                 2.8967                 3.0260
 Frc consts  --      0.4765                 0.2940                 0.3193
 IR Inten    --      2.2600                 0.4787                 0.1410

                     22                     23                     24
                      A                      A                      A
 Frequencies --    438.3380               459.4298               502.5533
 Red. masses --     12.4945                 8.5668                 4.7588
 Frc consts  --      1.4144                 1.0654                 0.7081
 IR Inten    --     14.9890                37.8852                52.7592

                     25                     26                     27
                      A                      A                      A
 Frequencies --    512.2166               532.2670               559.3167
 Red. masses --      3.6584                 2.8038                 3.0097
 Frc consts  --      0.5655                 0.4680                 0.5547
 IR Inten    --      9.0585                10.1095                46.2596

                     28                     29                     30
                      A                      A                      A
 Frequencies --    604.2574               631.6118               635.9115
 Red. masses --      7.0006                 6.4560                 7.0467
 Frc consts  --      1.5060                 1.5174                 1.6789
 IR Inten    --     31.3648                 2.1603                15.8678

                     31                     32                     33
                      A                      A                      A
 Frequencies --    656.4167               692.9269               708.7464
 Red. masses --      7.1551                12.6427                 2.7723
 Frc consts  --      1.8165                 3.5766                 0.8205
 IR Inten    --     19.3908                93.5028                28.9183

                     34                     35                     36
                      A                      A                      A
 Frequencies --    723.0395               727.2889               773.2569
 Red. masses --      2.2600                 3.5890                 2.1970
 Frc consts  --      0.6961                 1.1185                 0.7740
 IR Inten    --     36.2779                 2.0132                23.1346

                     37                     38                     39
                      A                      A                      A
 Frequencies --    812.8033               819.3195               825.0564
 Red. masses --      6.4002                 5.7682                 1.2730
 Frc consts  --      2.4912                 2.2814                 0.5106
 IR Inten    --    187.8816                42.3928                 3.7177

                     40                     41                     42
                      A                      A                      A
 Frequencies --    839.4595               850.0899               860.0936
 Red. masses --      1.7507                 3.5282                 1.2621
 Frc consts  --      0.7269                 1.5022                 0.5501
 IR Inten    --     41.8721                50.8345                 0.0334

                     43                     44                     45
                      A                      A                      A
 Frequencies --    914.9268               932.6410               967.4668
 Red. masses --      2.2024                 1.4762                 1.3138
 Frc consts  --      1.0862                 0.7565                 0.7245
 IR Inten    --     63.7514                 2.2750                 0.4540

                     46                     47                     48
                      A                      A                      A
 Frequencies --    983.5570               985.6331               991.6961
 Red. masses --      1.3433                 1.4052                 2.0094
 Frc consts  --      0.7656                 0.8043                 1.1643
 IR Inten    --      0.2060                 7.4260                85.0406

                     49                     50                     51
                      A                      A                      A
 Frequencies --   1005.3680              1014.3774              1022.2130
 Red. masses --      1.3241                 6.0086                 3.1317
 Frc consts  --      0.7886                 3.6427                 1.9280
 IR Inten    --      6.1734                 3.6154                 0.1786

                     52                     53                     54
                      A                      A                      A
 Frequencies --   1028.3291              1051.8562              1058.8548
 Red. masses --      5.3176                 2.1347                 7.2394
 Frc consts  --      3.3131                 1.3916                 4.7821
 IR Inten    --    140.9762                 2.0504                49.8260

                     55                     56                     57
                      A                      A                      A
 Frequencies --   1105.1004              1117.1867              1140.9523
 Red. masses --      1.5677                 3.3865                 1.3297
 Frc consts  --      1.1280                 2.4903                 1.0199
 IR Inten    --      2.8338               151.1937                 4.1667

                     58                     59                     60
                      A                      A                      A
 Frequencies --   1171.3190              1171.5284              1185.1775
 Red. masses --      1.2718                 1.3636                 1.1039
 Frc consts  --      1.0281                 1.1026                 0.9136
 IR Inten    --      0.5533                10.9072                 0.0100

                     61                     62                     63
                      A                      A                      A
 Frequencies --   1202.9991              1204.7135              1207.1016
 Red. masses --      1.1434                 1.2297                 1.3213
 Frc consts  --      0.9749                 1.0515                 1.1343
 IR Inten    --     11.8681                28.9902                33.7963

                     64                     65                     66
                      A                      A                      A
 Frequencies --   1230.3607              1246.2304              1295.1633
 Red. masses --      2.4039                 1.2374                 4.0441
 Frc consts  --      2.1440                 1.1323                 3.9969
 IR Inten    --      9.3907                14.1139               298.5477

                     67                     68                     69
                      A                      A                      A
 Frequencies --   1329.5195              1331.0591              1350.7341
 Red. masses --      1.7837                 1.4994                 1.3868
 Frc consts  --      1.8576                 1.5651                 1.4908
 IR Inten    --      6.4070                15.2537                22.3815

                     70                     71                     72
                      A                      A                      A
 Frequencies --   1354.4273              1360.8145              1394.1605
 Red. masses --      4.2214                 2.3332                 1.4189
 Frc consts  --      4.5626                 2.5457                 1.6249
 IR Inten    --     36.6471                 0.8729                 6.5440

                     73                     74                     75
                      A                      A                      A
 Frequencies --   1445.0669              1478.6004              1480.0370
 Red. masses --      3.0906                 1.1281                 1.1748
 Frc consts  --      3.8025                 1.4531                 1.5162
 IR Inten    --      9.0971                 6.2362                11.5432

                     76                     77                     78
                      A                      A                      A
 Frequencies --   1488.2756              1499.0957              1508.0283
 Red. masses --      2.0837                 1.0460                 1.0566
 Frc consts  --      2.7192                 1.3849                 1.4157
 IR Inten    --      7.4923                 8.9582                43.4566

                     79                     80                     81
                      A                      A                      A
 Frequencies --   1532.5372              1536.5052              1610.3245
 Red. masses --      2.2594                 2.3000                 6.4937
 Frc consts  --      3.1265                 3.1992                 9.9213
 IR Inten    --     10.0794                88.0022                28.8354

                     82                     83                     84
                      A                      A                      A
 Frequencies --   1633.6259              1644.6643              1653.8948
 Red. masses --      5.5922                 5.5803                 5.5768
 Frc consts  --      8.7931                 8.8933                 8.9877
 IR Inten    --      0.5854               199.4911                 2.9001

                     85                     86                     87
                      A                      A                      A
 Frequencies --   3025.0816              3048.0278              3077.6167
 Red. masses --      1.0338                 1.0852                 1.0580
 Frc consts  --      5.5740                 5.9403                 5.9040
 IR Inten    --     61.5597                12.1281                15.2899

                     88                     89                     90
                      A                      A                      A
 Frequencies --   3092.4118              3140.7481              3158.6519
 Red. masses --      1.1068                 1.1087                 1.1007
 Frc consts  --      6.2360                 6.4438                 6.4700
 IR Inten    --     31.4444                 1.9444                19.7033

                     91                     92                     93
                      A                      A                      A
 Frequencies --   3172.1318              3183.1120              3193.6148
 Red. masses --      1.0876                 1.0871                 1.0916
 Frc consts  --      6.4482                 6.4895                 6.5597
 IR Inten    --      5.6553                 0.2861                17.5462

                     94                     95                     96
                      A                      A                      A
 Frequencies --   3200.3317              3203.9376              3205.0700
 Red. masses --      1.0876                 1.0895                 1.0958
 Frc consts  --      6.5631                 6.5891                 6.6324
 IR Inten    --      3.9656                 1.1203                23.9431

                     97                     98                     99
                      A                      A                      A
 Frequencies --   3214.1421              3215.9751              3227.4877
 Red. masses --      1.0945                 1.0950                 1.0921
 Frc consts  --      6.6621                 6.6727                 6.7024
 IR Inten    --      4.9216                 5.6651                11.0214

 - Thermochemistry -
 -------------------
 Temperature   298.150 Kelvin.  Pressure   1.00000 Atm.
 Atom     1 has atomic number  6 and mass  12.00000

 Molecular mass:   322.02511 amu.
 Principal axes and moments of inertia in atomic units:
                           1         2         3
     Eigenvalues --  4336.39652********************
           X            0.99998  -0.00357  -0.00426
           Y            0.00359   0.99998   0.00480
           Z            0.00424  -0.00481   0.99998
 This molecule is an asymmetric top.
 Rotational symmetry number  1.
 Warning -- assumption of classical behavior for rotation
           may cause significant error
 Rotational temperatures (Kelvin)      0.01997     0.00691     0.00578
 Rotational constants (GHZ):           0.41618     0.14390     0.12042
 Zero-point vibrational energy     709368.2 (Joules/Mol)
                                  169.54308 (Kcal/Mol)
 Warning -- explicit consideration of  28 degrees of freedom as
           vibrations may cause significant error
 Vibrational temperatures:     26.56    32.83    39.56    87.51   107.25
          (Kelvin)            130.12   159.03   165.31   222.77   261.18
                              276.40   298.41   345.03   376.90   389.94
                              431.87   457.67   509.06   531.37   597.12
                              608.86   630.67   661.02   723.06   736.97
                              765.81   804.73   869.39   908.75   914.93
                              944.44   996.97  1019.73  1040.29  1046.41
                             1112.54  1169.44  1178.82  1187.07  1207.79
                             1223.09  1237.48  1316.38  1341.86  1391.97
                             1415.12  1418.11  1426.83  1446.50  1459.46
                             1470.74  1479.54  1513.39  1523.46  1589.99
                             1607.38  1641.58  1685.27  1685.57  1705.21
                             1730.85  1733.31  1736.75  1770.21  1793.05
                             1863.45  1912.88  1915.10  1943.41  1948.72
                             1957.91  2005.89  2079.13  2127.38  2129.44
                             2141.30  2156.86  2169.72  2204.98  2210.69
                             2316.90  2350.42  2366.31  2379.59  4352.42
                             4385.43  4428.00  4449.29  4518.84  4544.60
                             4563.99  4579.79  4594.90  4604.56  4609.75
                             4611.38  4624.43  4627.07  4643.63

 Zero-point correction=                           0.270184 (Hartree/Particle)
 Thermal correction to Energy=                    0.288972
 Thermal correction to Enthalpy=                  0.289916
 Thermal correction to Gibbs Free Energy=         0.220079
 Sum of electronic and zero-point Energies=          -1868.630443
 Sum of electronic and thermal Energies=             -1868.611655
 Sum of electronic and thermal Enthalpies=           -1868.610711
 Sum of electronic and thermal Free Energies=        -1868.680548

                     E (Thermal)             CV                S
                      KCal/Mol        Cal/Mol-Kelvin    Cal/Mol-Kelvin
 Total                  181.333             71.208            146.985
 Electronic               0.000              0.000              0.000
 Translational            0.889              2.981             43.204
 Rotational               0.889              2.981             35.054
 Vibrational            179.555             65.247             68.727
 Vibration     1          0.593              1.986              6.794
 Vibration     2          0.593              1.985              6.373
 Vibration     3          0.593              1.984              6.002
 Vibration     4          0.597              1.973              4.430
 Vibration     5          0.599              1.966              4.030
 Vibration     6          0.602              1.956              3.651
 Vibration     7          0.606              1.941              3.260
 Vibration     8          0.608              1.937              3.184
 Vibration     9          0.620              1.897              2.612
 Vibration    10          0.630              1.865              2.313
 Vibration    11          0.634              1.851              2.207
 Vibration    12          0.641              1.829              2.066
 Vibration    13          0.657              1.780              1.804
 Vibration    14          0.669              1.742              1.649
 Vibration    15          0.675              1.727              1.590
 Vibration    16          0.693              1.673              1.416
 Vibration    17          0.704              1.639              1.320
 Vibration    18          0.730              1.567              1.149
 Vibration    19          0.742              1.535              1.083
 Vibration    20          0.778              1.438              0.909
 Vibration    21          0.785              1.420              0.881
 Vibration    22          0.799              1.387              0.832
 Vibration    23          0.817              1.340              0.768
 Vibration    24          0.858              1.244              0.652
 Vibration    25          0.867              1.223              0.628
 Vibration    26          0.887              1.179              0.582
 Vibration    27          0.915              1.119              0.525
 Vibration    28          0.963              1.023              0.442

 Optimization completed.
    -- Stationary point found.
 Normal termination of Gaussian 16 at Thu May 22 11:41:21 2025.
