 Gaussian 16, Revision C.01,
 Gaussian 16:  ES64L-G16RevC.01  3-Jul-2019

 -----------------------------
 #n B3LYP/6-31+G(d,p) Opt Freq
 -----------------------------

 ------------------------
 sto LR adduct S benzylic
 ------------------------
 Symbolic Z-matrix:
 Charge =  0 Multiplicity = 1

 SCF Done:  E(RB3LYP) =  -1868.87945433     A.U. after   17 cycles
 SCF Done:  E(RB3LYP) =  -1868.88873486     A.U. after   17 cycles
 SCF Done:  E(RB3LYP) =  -1868.89116032     A.U. after   15 cycles
 SCF Done:  E(RB3LYP) =  -1868.89204977     A.U. after   14 cycles
 SCF Done:  E(RB3LYP) =  -1868.89257846     A.U. after   14 cycles
 SCF Done:  E(RB3LYP) =  -1868.89287733     A.U. after   16 cycles
 SCF Done:  E(RB3LYP) =  -1868.89297917     A.U. after   13 cycles
 SCF Done:  E(RB3LYP) =  -1868.89304872     A.U. after   14 cycles
 SCF Done:  E(RB3LYP) =  -1868.89313311     A.U. after   15 cycles
 SCF Done:  E(RB3LYP) =  -1868.89320100     A.U. after   15 cycles
 SCF Done:  E(RB3LYP) =  -1868.89352522     A.U. after   18 cycles
 SCF Done:  E(RB3LYP) =  -1868.89377027     A.U. after   17 cycles
 SCF Done:  E(RB3LYP) =  -1868.89369702     A.U. after   15 cycles
 SCF Done:  E(RB3LYP) =  -1868.89380906     A.U. after   15 cycles
 SCF Done:  E(RB3LYP) =  -1868.89382010     A.U. after   14 cycles
 SCF Done:  E(RB3LYP) =  -1868.89381480     A.U. after   14 cycles
 SCF Done:  E(RB3LYP) =  -1868.89382203     A.U. after   14 cycles
 SCF Done:  E(RB3LYP) =  -1868.89382199     A.U. after   11 cycles
 SCF Done:  E(RB3LYP) =  -1868.89382219     A.U. after   12 cycles
 Optimization completed.
    -- Stationary point found.
 Normal termination of Gaussian 16 at Fri May  9 14:16:48 2025.

 ----------------------------------------------------------------------
 #N Geom=AllCheck Guess=TCheck SCRF=Check GenChk RB3LYP/6-31+G(d,p) Fre
 q
 ----------------------------------------------------------------------

 Structure from the checkpoint file:  "sto_lr_adduct_SBn.chk"
 ------------------------
 sto LR adduct S benzylic
 ------------------------
 Charge =  0 Multiplicity = 1

                         Standard orientation:
 ---------------------------------------------------------------------
 Center     Atomic      Atomic             Coordinates (Angstroms)
 Number     Number       Type             X           Y           Z
 ---------------------------------------------------------------------
      1          6           0        6.050869    0.170927   -0.279294
      2          6           0        4.991110    1.083129   -0.319537
      3          6           0        3.672799    0.642863   -0.198037
      4          6           0        3.393570   -0.724200   -0.042796
      5          6           0        4.462505   -1.630572    0.002598
      6          6           0        5.783661   -1.189170   -0.115275
      7          1           0        7.075557    0.519925   -0.368190
      8          1           0        6.598003   -1.906798   -0.073864
      9          1           0        2.865151    1.367766   -0.212683
     10          1           0        5.190334    2.144079   -0.438896
     11          1           0        4.262408   -2.691647    0.133947
     12          6           0        1.979617   -1.260980    0.040339
     13          6           0        1.134075   -1.079939   -1.240599
     14          8           0        0.549753    0.225715   -1.282172
     15          1           0        0.344090   -1.839952   -1.280547
     16          1           0        1.760455   -1.162265   -2.131837
     17         16           0        0.080257    2.706293    0.335691
     18          1           0       -2.629134    2.166864   -0.365809
     19         15           0       -0.136399    0.784867    0.116287
     20          6           0       -2.882870    1.125794   -0.194638
     21         16           0        0.962874   -0.527379    1.423918
     22          6           0       -1.865909    0.211172    0.110690
     23          1           0       -4.976306    1.457389   -0.510049
     24          6           0       -4.216510    0.722670   -0.272770
     25          1           0       -6.978845    0.561988    0.359216
     26          6           0       -2.218565   -1.129696    0.359223
     27          6           0       -4.551221   -0.618233   -0.035322
     28          1           0       -1.457243   -1.850049    0.638488
     29          6           0       -3.542081   -1.541419    0.285226
     30          6           0       -6.892794   -0.235592   -0.388262
     31          8           0       -5.815497   -1.117311   -0.080788
     32          1           0       -6.773708    0.204351   -1.385568
     33          1           0       -7.792243   -0.851316   -0.367784
     34          1           0       -3.821155   -2.570959    0.483778
     35          1           0        2.024951   -2.332771    0.256158
 ---------------------------------------------------------------------

 SCF Done:  E(RB3LYP) =  -1868.89382219     A.U. after    2 cycles

 The electronic state is 1-A.
 Alpha  occ. eigenvalues --  -88.89440 -88.83820 -77.21141 -19.20669 -19.19370
 Alpha  occ. eigenvalues --  -10.27621 -10.27237 -10.25932 -10.25437 -10.21969
 Alpha  occ. eigenvalues --  -10.21835 -10.21765 -10.21387 -10.21186 -10.20902
 Alpha  occ. eigenvalues --  -10.20484 -10.20263 -10.20124 -10.19971 -10.19709
 Alpha  occ. eigenvalues --   -7.95565  -7.90122  -6.66510  -5.92025  -5.91728
 Alpha  occ. eigenvalues --   -5.91056  -5.86682  -5.85932  -5.85831  -4.82943
 Alpha  occ. eigenvalues --   -4.82732  -4.82565  -1.08989  -1.06651  -0.87688
 Alpha  occ. eigenvalues --   -0.87190  -0.82274  -0.79842  -0.77337  -0.76191
 Alpha  occ. eigenvalues --   -0.75467  -0.74736  -0.71621  -0.69558  -0.64676
 Alpha  occ. eigenvalues --   -0.63378  -0.61884  -0.61493  -0.58818  -0.57195
 Alpha  occ. eigenvalues --   -0.55280  -0.52762  -0.50835  -0.50383  -0.49733
 Alpha  occ. eigenvalues --   -0.48895  -0.48834  -0.46851  -0.46426  -0.46064
 Alpha  occ. eigenvalues --   -0.44440  -0.43604  -0.43128  -0.42776  -0.41942
 Alpha  occ. eigenvalues --   -0.40206  -0.39401  -0.38797  -0.38344  -0.36960
 Alpha  occ. eigenvalues --   -0.36052  -0.35739  -0.34950  -0.34820  -0.34530
 Alpha  occ. eigenvalues --   -0.33651  -0.31276  -0.27697  -0.27292  -0.26156
 Alpha  occ. eigenvalues --   -0.25747  -0.25218  -0.23457  -0.23433
 Alpha virt. eigenvalues --   -0.04933  -0.03599  -0.02824  -0.02225  -0.01532
 Alpha virt. eigenvalues --   -0.00844  -0.00307   0.00449   0.00854   0.01849
 Alpha virt. eigenvalues --    0.02150   0.02255   0.02786   0.02934   0.03457

 Mulliken charges:
               1
     1  C   -0.016876
     2  C   -0.460343
     3  C   -0.014979
     4  C    0.031489
     5  C    0.152631
     6  C   -0.191635
     7  H    0.126236
     8  H    0.126565
     9  H    0.162982
    10  H    0.133186
    11  H    0.113561
    12  C   -0.318853
    13  C   -0.310409
    14  O   -0.229480
    15  H    0.155125
    16  H    0.162751
    17  S   -0.150847
    18  H    0.156403
    19  P   -0.031361
    20  C   -0.050518
    21  S    0.208815
    22  C   -0.864011
    23  H    0.125327
    24  C    0.428416
    25  H    0.149652
    26  C    0.584922
    27  C   -0.081875
    28  H    0.136737
    29  C   -0.379876
    30  C   -0.126120
    31  O   -0.345331
    32  H    0.148905
    33  H    0.154420
    34  H    0.137831
    35  H    0.176560
 Sum of Mulliken charges =  -0.00000

 Dipole moment (field-independent basis, Debye):
    X=             -2.3121    Y=             -3.6679    Z=             -1.5220  Tot=              4.5952
 Quadrupole moment (field-independent basis, Debye-Ang):
   XX=           -103.6034   YY=           -139.7557   ZZ=           -147.6903
   XY=             -9.2317   XZ=              1.0173   YZ=             -0.8365

  Exact polarizability:     363.108       1.613     244.324       2.187      -6.033     154.669
 Approx polarizability:     453.525       3.949     450.892       3.639     -21.127     258.167

                      1                      2                      3
                      A                      A                      A
 Frequencies --     17.6656                24.9766                33.3501
 Red. masses --      4.9738                 4.1879                 5.2453
 Frc consts  --      0.0009                 0.0015                 0.0034
 IR Inten    --      1.0656                 0.2141                 0.6536

                      4                      5                      6
                      A                      A                      A
 Frequencies --     43.0474                74.3947                92.7768
 Red. masses --      4.7824                 4.4726                 6.7944
 Frc consts  --      0.0052                 0.0146                 0.0345
 IR Inten    --      0.4930                 0.2422                 2.6691

                      7                      8                      9
                      A                      A                      A
 Frequencies --    116.3178               136.1849               163.0939
 Red. masses --      4.8758                 6.2287                 6.1950
 Frc consts  --      0.0389                 0.0681                 0.0971
 IR Inten    --      4.2225                 0.2284                 0.3735

                     10                     11                     12
                      A                      A                      A
 Frequencies --    194.0184               203.5158               220.8165
 Red. masses --      4.4549                 4.9241                 6.5708
 Frc consts  --      0.0988                 0.1202                 0.1888
 IR Inten    --      1.2948                 0.2754                 2.5672

                     13                     14                     15
                      A                      A                      A
 Frequencies --    228.2866               256.0395               268.4919
 Red. masses --      2.2381                 1.9539                 4.6743
 Frc consts  --      0.0687                 0.0755                 0.1985
 IR Inten    --      2.5578                 2.6474                 1.9803

                     16                     17                     18
                      A                      A                      A
 Frequencies --    308.8151               326.9075               354.4547
 Red. masses --      3.2748                 5.4285                 6.6745
 Frc consts  --      0.1840                 0.3418                 0.4941
 IR Inten    --      0.4187                 0.8222                13.9876

                     19                     20                     21
                      A                      A                      A
 Frequencies --    368.7564               414.8294               422.7867
 Red. masses --      7.3157                 2.8793                 3.0804
 Frc consts  --      0.5861                 0.2919                 0.3244
 IR Inten    --     13.1181                 0.5078                 0.7854

                     22                     23                     24
                      A                      A                      A
 Frequencies --    438.0641               461.0993               492.7570
 Red. masses --     12.1912                 9.5332                 4.5090
 Frc consts  --      1.3784                 1.1942                 0.6451
 IR Inten    --      8.1025                61.7949                17.8168

                     25                     26                     27
                      A                      A                      A
 Frequencies --    510.5855               531.5794               551.3337
 Red. masses --      4.5459                 2.7758                 4.4419
 Frc consts  --      0.6982                 0.4621                 0.7955
 IR Inten    --     62.4653                20.6335                32.9468

                     28                     29                     30
                      A                      A                      A
 Frequencies --    608.0087               628.5057               637.1137
 Red. masses --      5.8662                 6.2743                 6.0785
 Frc consts  --      1.2777                 1.4603                 1.4537
 IR Inten    --     29.7077                 4.8141                13.1969

                     31                     32                     33
                      A                      A                      A
 Frequencies --    652.6676               690.4163               712.0670
 Red. masses --      6.7361                 9.3562                 1.6511
 Frc consts  --      1.6906                 2.6277                 0.4932
 IR Inten    --     13.7843                86.3177                51.6519

                     34                     35                     36
                      A                      A                      A
 Frequencies --    719.8998               756.2616               771.4092
 Red. masses --      3.7495                11.0883                 3.5187
 Frc consts  --      1.1449                 3.7364                 1.2337
 IR Inten    --      3.5237               169.0727                25.0759

                     37                     38                     39
                      A                      A                      A
 Frequencies --    783.6472               788.8970               817.4674
 Red. masses --      4.5231                 2.4957                 5.8219
 Frc consts  --      1.6365                 0.9151                 2.2922
 IR Inten    --     22.2670                 7.1086                39.5365

                     40                     41                     42
                      A                      A                      A
 Frequencies --    826.9371               844.4057               857.6039
 Red. masses --      1.2718                 1.6421                 1.2484
 Frc consts  --      0.5124                 0.6899                 0.5410
 IR Inten    --      4.9857                42.4787                 0.0750

                     43                     44                     45
                      A                      A                      A
 Frequencies --    929.3440               943.9265               970.1179
 Red. masses --      1.6549                 2.2183                 1.2823
 Frc consts  --      0.8421                 1.1645                 0.7111
 IR Inten    --      6.0812                36.2154                 0.4342

                     46                     47                     48
                      A                      A                      A
 Frequencies --    984.5803               985.6836              1006.4389
 Red. masses --      1.3387                 1.3678                 1.3151
 Frc consts  --      0.7646                 0.7830                 0.7848
 IR Inten    --      0.1779                 0.2183                 0.4704

                     49                     50                     51
                      A                      A                      A
 Frequencies --   1013.5987              1021.8902              1044.6858
 Red. masses --      5.7461                 3.2186                 2.4467
 Frc consts  --      3.4782                 1.9803                 1.5733
 IR Inten    --      1.6282                 0.1927                 7.6859

                     52                     53                     54
                      A                      A                      A
 Frequencies --   1055.5498              1058.7596              1061.5716
 Red. masses --      3.7388                 6.7534                 2.1639
 Frc consts  --      2.4544                 4.4603                 1.4368
 IR Inten    --    113.2039                57.3078                32.2865

                     55                     56                     57
                      A                      A                      A
 Frequencies --   1110.8691              1112.3285              1141.9422
 Red. masses --      3.4085                 1.6267                 1.3313
 Frc consts  --      2.4782                 1.1858                 1.0228
 IR Inten    --    154.0637                11.7250                 6.7359

                     58                     59                     60
                      A                      A                      A
 Frequencies --   1171.2146              1185.4989              1193.9177
 Red. masses --      1.2709                 1.1064                 1.3611
 Frc consts  --      1.0272                 0.9161                 1.1431
 IR Inten    --      0.9322                 0.0434                 8.9873

                     61                     62                     63
                      A                      A                      A
 Frequencies --   1205.5425              1208.3278              1214.7915
 Red. masses --      1.3386                 1.2272                 1.1415
 Frc consts  --      1.1463                 1.0557                 0.9925
 IR Inten    --      7.1145                83.8646                 0.5570

                     64                     65                     66
                      A                      A                      A
 Frequencies --   1215.3519              1265.7615              1296.6111
 Red. masses --      1.9700                 1.1517                 4.0313
 Frc consts  --      1.7145                 1.0872                 3.9931
 IR Inten    --      3.9833                 8.5560               302.5040

                     67                     68                     69
                      A                      A                      A
 Frequencies --   1305.7897              1328.9176              1347.9000
 Red. masses --      2.0509                 1.4822                 4.3657
 Frc consts  --      2.0603                 1.5423                 4.6733
 IR Inten    --     16.1282                27.8369                44.6737

                     70                     71                     72
                      A                      A                      A
 Frequencies --   1363.0893              1376.9054              1386.2077
 Red. masses --      3.0715                 1.2753                 1.2651
 Frc consts  --      3.3624                 1.4245                 1.4323
 IR Inten    --      1.8652                 2.1879                 8.6706

                     73                     74                     75
                      A                      A                      A
 Frequencies --   1443.9843              1479.7746              1488.9896
 Red. masses --      3.0661                 1.1886                 2.1468
 Frc consts  --      3.7667                 1.5335                 2.8044
 IR Inten    --      6.1874                13.7731                10.4698

                     76                     77                     78
                      A                      A                      A
 Frequencies --   1499.1329              1507.4122              1507.9920
 Red. masses --      1.0460                 1.0907                 1.0560
 Frc consts  --      1.3850                 1.4602                 1.4149
 IR Inten    --      8.9720                 1.8814                47.5570

                     79                     80                     81
                      A                      A                      A
 Frequencies --   1533.5427              1534.7257              1606.3536
 Red. masses --      2.1513                 2.2678                 6.4739
 Frc consts  --      2.9809                 3.1472                 9.8423
 IR Inten    --      7.9558               103.5409                20.4285

                     82                     83                     84
                      A                      A                      A
 Frequencies --   1631.1370              1643.4092              1650.8695
 Red. masses --      5.3748                 5.5504                 5.4186
 Frc consts  --      8.4255                 8.8322                 8.7009
 IR Inten    --      1.5465               196.8452                 1.5851

                     85                     86                     87
                      A                      A                      A
 Frequencies --   3024.9625              3042.7527              3085.4703
 Red. masses --      1.0338                 1.0653                 1.0848
 Frc consts  --      5.5737                 5.8113                 6.0849
 IR Inten    --     61.6370                32.7105                 9.4209

                     88                     89                     90
                      A                      A                      A
 Frequencies --   3092.2804              3125.9528              3158.6019
 Red. masses --      1.1068                 1.1013                 1.1006
 Frc consts  --      6.2355                 6.3405                 6.4697
 IR Inten    --     31.8107                14.7829                20.3622

                     91                     92                     93
                      A                      A                      A
 Frequencies --   3167.7783              3182.9404              3193.1682
 Red. masses --      1.0876                 1.0871                 1.0912
 Frc consts  --      6.4305                 6.4888                 6.5552
 IR Inten    --      7.9846                 2.0151                19.6553

                     94                     95                     96
                      A                      A                      A
 Frequencies --   3202.3573              3202.8865              3205.7621
 Red. masses --      1.0877                 1.0945                 1.0892
 Frc consts  --      6.5717                 6.6154                 6.5949
 IR Inten    --      2.2766                11.8895                 0.5464

                     97                     98                     99
                      A                      A                      A
 Frequencies --   3209.7929              3216.3905              3226.6556
 Red. masses --      1.0970                 1.0946                 1.0924
 Frc consts  --      6.6589                 6.6717                 6.7007
 IR Inten    --     15.8348                 5.4668                11.9116

 - Thermochemistry -
 -------------------
 Temperature   298.150 Kelvin.  Pressure   1.00000 Atm.
 Atom     1 has atomic number  6 and mass  12.00000

 Molecular mass:   322.02511 amu.
 Principal axes and moments of inertia in atomic units:
                           1         2         3
     Eigenvalues --  2284.65678********************
           X            0.99999  -0.00324   0.00039
           Y            0.00324   0.99999  -0.00292
           Z           -0.00038   0.00292   1.00000
 This molecule is an asymmetric top.
 Rotational symmetry number  1.
 Warning -- assumption of classical behavior for rotation
           may cause significant error
 Rotational temperatures (Kelvin)      0.03791     0.00578     0.00531
 Rotational constants (GHZ):           0.78994     0.12051     0.11061
 Zero-point vibrational energy     710117.9 (Joules/Mol)
                                  169.72225 (Kcal/Mol)
 Warning -- explicit consideration of  28 degrees of freedom as
           vibrations may cause significant error
 Vibrational temperatures:     25.42    35.94    47.98    61.94   107.04
          (Kelvin)            133.49   167.36   195.94   234.66   279.15
                              292.81   317.71   328.45   368.38   386.30
                              444.32   470.35   509.98   530.56   596.85
                              608.30   630.28   663.42   708.97   734.62
                              764.82   793.25   874.79   904.28   916.66
                              939.04   993.36  1024.51  1035.78  1088.09
                             1109.89  1127.49  1135.05  1176.15  1189.78
                             1214.91  1233.90  1337.12  1358.10  1395.78
                             1416.59  1418.18  1448.04  1458.34  1470.27
                             1503.07  1518.70  1523.32  1527.36  1598.29
                             1600.39  1643.00  1685.12  1705.67  1717.78
                             1734.51  1738.51  1747.81  1748.62  1821.15
                             1865.53  1878.74  1912.02  1939.33  1961.18
                             1981.06  1994.44  2077.57  2129.07  2142.32
                             2156.92  2168.83  2169.66  2206.43  2208.13
                             2311.18  2346.84  2364.50  2375.23  4352.25
                             4377.84  4439.30  4449.10  4497.55  4544.52
                             4557.73  4579.54  4594.26  4607.48  4608.24
                             4612.38  4618.18  4627.67  4642.44

 Zero-point correction=                           0.270470 (Hartree/Particle)
 Thermal correction to Energy=                    0.289170
 Thermal correction to Enthalpy=                  0.290114
 Thermal correction to Gibbs Free Energy=         0.220749
 Sum of electronic and zero-point Energies=          -1868.623353
 Sum of electronic and thermal Energies=             -1868.604652
 Sum of electronic and thermal Enthalpies=           -1868.603708
 Sum of electronic and thermal Free Energies=        -1868.673073

                     E (Thermal)             CV                S
                      KCal/Mol        Cal/Mol-Kelvin    Cal/Mol-Kelvin
 Total                  181.457             71.111            145.992
 Electronic               0.000              0.000              0.000
 Translational            0.889              2.981             43.204
 Rotational               0.889              2.981             34.678
 Vibrational            179.679             65.149             68.110
 Vibration     1          0.593              1.986              6.881
 Vibration     2          0.593              1.985              6.193
 Vibration     3          0.594              1.983              5.619
 Vibration     4          0.595              1.980              5.114
 Vibration     5          0.599              1.966              4.034
 Vibration     6          0.602              1.954              3.601
 Vibration     7          0.608              1.936              3.161
 Vibration     8          0.614              1.917              2.857
 Vibration     9          0.623              1.888              2.514
 Vibration    10          0.635              1.848              2.189
 Vibration    11          0.639              1.835              2.101
 Vibration    12          0.648              1.809              1.952
 Vibration    13          0.651              1.798              1.892
 Vibration    14          0.666              1.753              1.689
 Vibration    15          0.673              1.731              1.606
 Vibration    16          0.698              1.657              1.369
 Vibration    17          0.711              1.622              1.275
 Vibration    18          0.730              1.566              1.146
 Vibration    19          0.741              1.536              1.085
 Vibration    20          0.778              1.438              0.910
 Vibration    21          0.785              1.421              0.883
 Vibration    22          0.798              1.387              0.833
 Vibration    23          0.819              1.336              0.763
 Vibration    24          0.848              1.266              0.676
 Vibration    25          0.866              1.227              0.632
 Vibration    26          0.887              1.180              0.584
 Vibration    27          0.907              1.137              0.541
 Vibration    28          0.967              1.015              0.436

                           ! Non-Optimized Parameters !
 Normal termination of Gaussian 16 at Fri May  9 14:29:55 2025.
