 Gaussian 16, Revision C.01,
 Gaussian 16:  ES64L-G16RevC.01  3-Jul-2019

 ----------------------------------------------------------------------
 #n nmr=giao wb97xd/aug-cc-pvdz scrf=(cpcm,solvent=Chloroform) integral
 =(acc2e=14,grid=superfinegrid)
 ----------------------------------------------------------------------

 -------------
 OBn trans NMR
 -------------
 Symbolic Z-matrix:
 Charge =  0 Multiplicity = 1

                         Standard orientation:
 ---------------------------------------------------------------------
 Center     Atomic      Atomic             Coordinates (Angstroms)
 Number     Number       Type             X           Y           Z
 ---------------------------------------------------------------------
      1          6           0       -5.892500   -0.121599   -0.485880
      2          6           0       -4.922710    0.877411   -0.593590
      3          6           0       -3.564460    0.562680   -0.490350
      4          6           0       -3.164740   -0.760730   -0.275320
      5          6           0       -4.142640   -1.762369   -0.181490
      6          6           0       -5.498650   -1.447159   -0.280160
      7          1           0       -6.946310    0.127761   -0.569430
      8          1           0       -6.243280   -2.234689   -0.208050
      9          1           0       -2.822360    1.347420   -0.588360
     10          1           0       -5.219140    1.908691   -0.761370
     11          1           0       -3.844051   -2.798980   -0.036600
     12          6           0       -1.710650   -1.165340   -0.115510
     13          6           0       -1.245530   -1.306110    1.355300
     14          8           0       -0.810480   -0.272610   -0.804580
     15          1           0       -1.569350   -2.138680   -0.600320
     16         16           0       -0.731780    0.349720    1.962730
     17          1           0        2.632921    2.104979    0.512330
     18         15           0        0.051480    0.859540    0.034350
     19          6           0        2.824870    1.081729    0.205030
     20         16           0       -0.181889    2.730450   -0.452620
     21          6           0        1.752230    0.243689   -0.124830
     22          1           0        4.948800    1.304989    0.386520
     23          6           0        4.142530    0.629789    0.127050
     24          1           0        6.836730    0.458678   -0.745440
     25          6           0        2.025950   -1.068511   -0.553520
     26          6           0        4.401330   -0.683101   -0.294210
     27          1           0        1.213320   -1.723071   -0.848160
     28          6           0        3.333740   -1.527701   -0.639130
     29          6           0        6.777290   -0.420012   -0.092180
     30          8           0        5.644310   -1.224302   -0.410270
     31          1           0        6.755720   -0.099582    0.956330
     32          1           0        7.646620   -1.056312   -0.259510
     33          1           0        3.554470   -2.533351   -0.981560
     34          1           0       -0.404870   -2.002020    1.428510
     35          1           0       -2.059710   -1.662340    1.989680
 ---------------------------------------------------------------------

 SCF Done:  E(RwB97XD) =  -1868.71319807     A.U. after   16 cycles

      1  C    Isotropic =    67.2868   Anisotropy =   179.8981

      2  C    Isotropic =    67.1052   Anisotropy =   180.0378

      3  C    Isotropic =    66.9869   Anisotropy =   179.1842

      4  C    Isotropic =    52.9524   Anisotropy =   175.7644

      5  C    Isotropic =    70.1274   Anisotropy =   167.5509

      6  C    Isotropic =    67.1129   Anisotropy =   179.0553

      7  H    Isotropic =    23.7710   Anisotropy =     4.4712

      8  H    Isotropic =    23.7373   Anisotropy =     5.0215

      9  H    Isotropic =    23.0190   Anisotropy =    11.0457

     10  H    Isotropic =    23.6430   Anisotropy =     6.8863

     11  H    Isotropic =    23.8690   Anisotropy =     9.1685

     12  C    Isotropic =   108.7391   Anisotropy =    70.6111

     13  C    Isotropic =   145.8562   Anisotropy =    36.5006

     14  O    Isotropic =   202.6376   Anisotropy =    97.0534

     15  H    Isotropic =    25.3250   Anisotropy =     8.2110

     16  S    Isotropic =   491.4773   Anisotropy =   413.6715

     17  H    Isotropic =    23.0980   Anisotropy =    11.6523

     18  P    Isotropic =   254.2723   Anisotropy =   175.2011

     19  C    Isotropic =    59.8043   Anisotropy =   187.8108

     20  S    Isotropic =   627.6369   Anisotropy =   123.2598

     21  C    Isotropic =    62.3717   Anisotropy =   143.2799

     22  H    Isotropic =    24.2524   Anisotropy =     8.0974

     23  C    Isotropic =    84.8841   Anisotropy =   152.5694

     24  H    Isotropic =    27.7505   Anisotropy =     8.2771

     25  C    Isotropic =    64.8846   Anisotropy =   176.3823

     26  C    Isotropic =    30.9636   Anisotropy =   139.5443

     27  H    Isotropic =    23.5709   Anisotropy =    11.7146

     28  C    Isotropic =    79.8908   Anisotropy =   141.3692

     29  C    Isotropic =   141.6320   Anisotropy =    71.3723

     30  O    Isotropic =   234.9313   Anisotropy =    84.2365

     31  H    Isotropic =    27.7369   Anisotropy =     8.1550

     32  H    Isotropic =    27.4071   Anisotropy =     8.7458

     33  H    Isotropic =    24.2409   Anisotropy =     6.7623

     34  H    Isotropic =    27.5943   Anisotropy =     9.9090

     35  H    Isotropic =    28.3821   Anisotropy =    10.5269

 The electronic state is 1-A.
 Alpha  occ. eigenvalues --  -89.06848 -89.01696 -77.38782 -19.31899 -19.31869
 Alpha  occ. eigenvalues --  -10.39065 -10.38387 -10.35433 -10.35249 -10.32837
 Alpha  occ. eigenvalues --  -10.32796 -10.32750 -10.32160 -10.31707 -10.31490
 Alpha  occ. eigenvalues --  -10.31192 -10.31043 -10.30895 -10.30844 -10.30773
 Alpha  occ. eigenvalues --   -8.08595  -8.03642  -6.80150  -6.03479  -6.03209
 Alpha  occ. eigenvalues --   -6.02530  -5.98635  -5.97907  -5.97787  -4.95114
 Alpha  occ. eigenvalues --   -4.94874  -4.94710  -1.18791  -1.17522  -0.97994
 Alpha  occ. eigenvalues --   -0.97199  -0.92052  -0.90669  -0.87479  -0.86768
 Alpha  occ. eigenvalues --   -0.85524  -0.84971  -0.80602  -0.79615  -0.73660
 Alpha  occ. eigenvalues --   -0.72712  -0.71439  -0.70672  -0.69320  -0.66076
 Alpha  occ. eigenvalues --   -0.64000  -0.62436  -0.59840  -0.59326  -0.57889
 Alpha  occ. eigenvalues --   -0.57380  -0.56873  -0.55124  -0.54215  -0.53949
 Alpha  occ. eigenvalues --   -0.52740  -0.52580  -0.51389  -0.51027  -0.50705
 Alpha  occ. eigenvalues --   -0.49017  -0.48040  -0.47061  -0.46628  -0.45912
 Alpha  occ. eigenvalues --   -0.44382  -0.44271  -0.43517  -0.42866  -0.42519
 Alpha  occ. eigenvalues --   -0.41842  -0.39962  -0.35281  -0.35181  -0.33891
 Alpha  occ. eigenvalues --   -0.33750  -0.33389  -0.33033  -0.30979
 Alpha virt. eigenvalues --    0.01262   0.03261   0.03288   0.03799   0.03894
 Alpha virt. eigenvalues --    0.04327   0.04512   0.04687   0.04931   0.05223
 Alpha virt. eigenvalues --    0.05860   0.05958   0.06177   0.06584   0.06874

 Mulliken charges:
               1
     1  C    0.568212
     2  C    0.001310
     3  C    1.166144
     4  C    1.336701
     5  C    0.657928
     6  C    0.193623
     7  H   -0.596678
     8  H   -0.622013
     9  H   -1.024469
    10  H   -0.671596
    11  H   -0.927689
    12  C    1.273624
    13  C    0.382662
    14  O   -0.766346
    15  H   -0.534653
    16  S   -0.057216
    17  H   -0.933240
    18  P    0.561505
    19  C    0.324089
    20  S   -0.605326
    21  C   -0.003513
    22  H   -1.052110
    23  C    1.107626
    24  H   -0.100812
    25  C    1.949410
    26  C    0.609554
    27  H   -1.037132
    28  C    0.581327
    29  C    0.946804
    30  O   -0.713733
    31  H   -0.099301
    32  H   -0.407802
    33  H   -0.820647
    34  H   -0.311184
    35  H   -0.375060
 Sum of Mulliken charges =  -0.00000

 Dipole moment (field-independent basis, Debye):
    X=              2.7613    Y=             -5.7856    Z=              1.7401  Tot=              6.6427
 Quadrupole moment (field-independent basis, Debye-Ang):
   XX=            -97.0061   YY=           -137.9467   ZZ=           -146.6919
   XY=             11.6418   XZ=              1.3849   YZ=              0.0129

 1\1\GINC-R148\SP\RwB97XD\Aug-CC-pVDZ\C15H15O2P1S2\ZLAB\22-May-2025\0\\
 #n nmr=giao wb97xd/aug-cc-pvdz scrf=(cpcm,solvent=Chloroform) integral
 =(acc2e=14,grid=superfinegrid)\\OBn trans NMR\\0,1\C,0,5.8925,-0.1216,
 0.48588\C,0,4.92271,0.87741,0.59359\C,0,3.56446,0.56268,0.49035\C,0,3.
 16474,-0.76073,0.27532\C,0,4.14264,-1.76237,0.18149\C,0,5.49865,-1.447
 16,0.28016\H,0,6.94631,0.12776,0.56943\H,0,6.24328,-2.23469,0.20805\H,
 0,2.82236,1.34742,0.58836\H,0,5.21914,1.90869,0.76137\H,0,3.84405,-2.7
 9898,0.0366\C,0,1.71065,-1.16534,0.11551\C,0,1.24553,-1.30611,-1.3553\

 Normal termination of Gaussian 16 at Thu May 22 12:20:35 2025.
