 Gaussian 16, Revision C.01,
 Gaussian 16:  ES64L-G16RevC.01  3-Jul-2019

 ----------------------------------------------------------------------
 #n nmr=giao wb97xd/aug-cc-pvdz scrf=(cpcm,solvent=Chloroform) integral
 =(acc2e=14,grid=superfinegrid)
 ----------------------------------------------------------------------

 -------------
 SBn trans NMR
 -------------
 Symbolic Z-matrix:
 Charge =  0 Multiplicity = 1

                         Standard orientation:
 ---------------------------------------------------------------------
 Center     Atomic      Atomic             Coordinates (Angstroms)
 Number     Number       Type             X           Y           Z
 ---------------------------------------------------------------------
      1          6           0        6.050870    0.170930   -0.279290
      2          6           0        4.991110    1.083130   -0.319540
      3          6           0        3.672800    0.642860   -0.198040
      4          6           0        3.393570   -0.724199   -0.042800
      5          6           0        4.462510   -1.630570    0.002600
      6          6           0        5.783660   -1.189170   -0.115280
      7          1           0        7.075560    0.519920   -0.368190
      8          1           0        6.598000   -1.906800   -0.073860
      9          1           0        2.865150    1.367771   -0.212680
     10          1           0        5.190330    2.144080   -0.438900
     11          1           0        4.262410   -2.691650    0.133950
     12          6           0        1.979620   -1.260979    0.040340
     13          6           0        1.134070   -1.079939   -1.240600
     14          8           0        0.549750    0.225711   -1.282170
     15          1           0        0.344090   -1.839949   -1.280550
     16          1           0        1.760460   -1.162269   -2.131840
     17         16           0        0.080260    2.706291    0.335690
     18          1           0       -2.629130    2.166861   -0.365810
     19         15           0       -0.136400    0.784871    0.116290
     20          6           0       -2.882870    1.125791   -0.194640
     21         16           0        0.962870   -0.527379    1.423920
     22          6           0       -1.865910    0.211171    0.110690
     23          1           0       -4.976310    1.457391   -0.510050
     24          6           0       -4.216510    0.722671   -0.272770
     25          1           0       -6.978840    0.561991    0.359220
     26          6           0       -2.218560   -1.129699    0.359220
     27          6           0       -4.551220   -0.618229   -0.035320
     28          1           0       -1.457240   -1.850049    0.638490
     29          6           0       -3.542080   -1.541419    0.285230
     30          6           0       -6.892790   -0.235589   -0.388260
     31          8           0       -5.815500   -1.117309   -0.080790
     32          1           0       -6.773710    0.204351   -1.385570
     33          1           0       -7.792240   -0.851319   -0.367780
     34          1           0       -3.821160   -2.570959    0.483780
     35          1           0        2.024950   -2.332769    0.256160
 ---------------------------------------------------------------------

 SCF Done:  E(RwB97XD) =  -1868.71090458     A.U. after   16 cycles

      1  C    Isotropic =    66.6969   Anisotropy =   180.1548

      2  C    Isotropic =    65.7525   Anisotropy =   180.9510

      3  C    Isotropic =    65.7838   Anisotropy =   178.5240

      4  C    Isotropic =    50.4183   Anisotropy =   183.8357

      5  C    Isotropic =    67.8172   Anisotropy =   154.3581

      6  C    Isotropic =    67.6119   Anisotropy =   176.6939

      7  H    Isotropic =    23.7954   Anisotropy =     4.4891

      8  H    Isotropic =    23.8444   Anisotropy =     4.9118

      9  H    Isotropic =    22.9823   Anisotropy =    11.4427

     10  H    Isotropic =    23.6436   Anisotropy =     6.9671

     11  H    Isotropic =    23.9398   Anisotropy =     8.6658

     12  C    Isotropic =   130.4505   Anisotropy =    35.1710

     13  C    Isotropic =   120.1949   Anisotropy =    48.3158

     14  O    Isotropic =   195.7929   Anisotropy =   125.7528

     15  H    Isotropic =    27.1276   Anisotropy =     8.5944

     16  H    Isotropic =    27.2756   Anisotropy =     7.2826

     17  S    Isotropic =   649.5623   Anisotropy =   126.9266

     18  H    Isotropic =    22.7626   Anisotropy =    12.5525

     19  P    Isotropic =   250.6840   Anisotropy =   212.4281

     20  C    Isotropic =    58.5930   Anisotropy =   192.0514

     21  S    Isotropic =   441.3035   Anisotropy =   271.7062

     22  C    Isotropic =    67.1379   Anisotropy =   142.4782

     23  H    Isotropic =    24.2573   Anisotropy =     8.1872

     24  C    Isotropic =    85.8729   Anisotropy =   151.3074

     25  H    Isotropic =    27.7398   Anisotropy =     8.2194

     26  C    Isotropic =    62.6551   Anisotropy =   178.0910

     27  C    Isotropic =    30.7691   Anisotropy =   140.2343

     28  H    Isotropic =    23.2219   Anisotropy =    12.2494

     29  C    Isotropic =    79.4551   Anisotropy =   141.4092

     30  C    Isotropic =   141.5377   Anisotropy =    71.3942

     31  O    Isotropic =   233.6723   Anisotropy =    85.8493

     32  H    Isotropic =    27.7305   Anisotropy =     8.1767

     33  H    Isotropic =    27.4006   Anisotropy =     8.7195

     34  H    Isotropic =    24.2036   Anisotropy =     6.8576

     35  H    Isotropic =    26.5636   Anisotropy =    10.5433

 The electronic state is 1-A.
 Alpha  occ. eigenvalues --  -89.06867 -89.01617 -77.38690 -19.31970 -19.31752
 Alpha  occ. eigenvalues --  -10.38472 -10.37764 -10.36316 -10.35464 -10.32928
 Alpha  occ. eigenvalues --  -10.32858 -10.32770 -10.32389 -10.31699 -10.31540
 Alpha  occ. eigenvalues --  -10.31198 -10.31032 -10.30954 -10.30906 -10.30835
 Alpha  occ. eigenvalues --   -8.08573  -8.03564  -6.80069  -6.03472  -6.03174
 Alpha  occ. eigenvalues --   -6.02516  -5.98559  -5.97814  -5.97723  -4.95012
 Alpha  occ. eigenvalues --   -4.94803  -4.94636  -1.18866  -1.17395  -0.97980
 Alpha  occ. eigenvalues --   -0.97583  -0.92412  -0.90131  -0.87242  -0.86053
 Alpha  occ. eigenvalues --   -0.85551  -0.84765  -0.80826  -0.79749  -0.74242
 Alpha  occ. eigenvalues --   -0.72780  -0.71166  -0.70872  -0.68162  -0.66614
 Alpha  occ. eigenvalues --   -0.63856  -0.61794  -0.59735  -0.59190  -0.58402
 Alpha  occ. eigenvalues --   -0.57750  -0.56923  -0.55291  -0.55201  -0.54650
 Alpha  occ. eigenvalues --   -0.52732  -0.51658  -0.51441  -0.51281  -0.50364
 Alpha  occ. eigenvalues --   -0.48702  -0.48070  -0.47302  -0.46336  -0.45602
 Alpha  occ. eigenvalues --   -0.44535  -0.43822  -0.42935  -0.42711  -0.42577
 Alpha  occ. eigenvalues --   -0.42093  -0.39624  -0.35938  -0.35249  -0.34158
 Alpha  occ. eigenvalues --   -0.33900  -0.33136  -0.32206  -0.31416
 Alpha virt. eigenvalues --    0.01209   0.02804   0.03322   0.03658   0.03816
 Alpha virt. eigenvalues --    0.04143   0.04321   0.04749   0.04898   0.05030
 Alpha virt. eigenvalues --    0.05620   0.05963   0.06218   0.06362   0.06988

 Mulliken charges:
               1
     1  C    0.595977
     2  C    0.011404
     3  C    0.884961
     4  C    1.185598
     5  C    0.702845
     6  C    0.410585
     7  H   -0.594739
     8  H   -0.612206
     9  H   -1.031227
    10  H   -0.662228
    11  H   -0.896070
    12  C    0.747692
    13  C    1.087196
    14  O   -0.722378
    15  H   -0.350352
    16  H   -0.427147
    17  S   -0.682804
    18  H   -0.941630
    19  P    1.146838
    20  C    0.422673
    21  S   -0.253327
    22  C   -0.041647
    23  H   -1.054575
    24  C    1.165014
    25  H   -0.101090
    26  C    1.557110
    27  C    0.673455
    28  H   -1.037234
    29  C    0.570780
    30  C    0.939928
    31  O   -0.706947
    32  H   -0.097847
    33  H   -0.404231
    34  H   -0.808233
    35  H   -0.676143
 Sum of Mulliken charges =  -0.00000

 Dipole moment (field-independent basis, Debye):
    X=             -2.6746    Y=             -5.4450    Z=             -1.9438  Tot=              6.3702
 Quadrupole moment (field-independent basis, Debye-Ang):
   XX=            -94.9056   YY=           -138.0426   ZZ=           -146.5168
   XY=            -11.6537   XZ=              0.9614   YZ=             -1.3338

 1\1\GINC-R175\SP\RwB97XD\Aug-CC-pVDZ\C15H15O2P1S2\ZLAB\23-May-2025\0\\
 #n nmr=giao wb97xd/aug-cc-pvdz scrf=(cpcm,solvent=Chloroform) integral
 =(acc2e=14,grid=superfinegrid)\\SBn trans NMR\\0,1\C,0,6.05087,0.17093
 ,-0.27929\C,0,4.99111,1.08313,-0.31954\C,0,3.6728,0.64286,-0.19804\C,0
 ,3.39357,-0.7242,-0.0428\C,0,4.46251,-1.63057,0.0026\C,0,5.78366,-1.18
 917,-0.11528\H,0,7.07556,0.51992,-0.36819\H,0,6.598,-1.9068,-0.07386\H
 ,0,2.86515,1.36777,-0.21268\H,0,5.19033,2.14408,-0.4389\H,0,4.26241,-2
 .69165,0.13395\C,0,1.97962,-1.26098,0.04034\C,0,1.13407,-1.07994,-1.24

 Normal termination of Gaussian 16 at Fri May 23 06:39:29 2025.
