 Gaussian 16, Revision C.01,
 Gaussian 16:  ES64L-G16RevC.01  3-Jul-2019

 -----------------------------
 #n B3LYP/6-31+G(d,p) Opt Freq
 -----------------------------

 ------------------------
 sto LR adduct O benzylic
 ------------------------
 Symbolic Z-matrix:
 Charge =  0 Multiplicity = 1

 SCF Done:  E(RB3LYP) =  -1868.87424684     A.U. after   17 cycles
 SCF Done:  E(RB3LYP) =  -1868.88608848     A.U. after   17 cycles
 SCF Done:  E(RB3LYP) =  -1868.88950919     A.U. after   16 cycles
 SCF Done:  E(RB3LYP) =  -1868.89043441     A.U. after   14 cycles
 SCF Done:  E(RB3LYP) =  -1868.89107501     A.U. after   15 cycles
 SCF Done:  E(RB3LYP) =  -1868.89174703     A.U. after   16 cycles
 SCF Done:  E(RB3LYP) =  -1868.89261052     A.U. after   17 cycles
 SCF Done:  E(RB3LYP) =  -1868.89347502     A.U. after   18 cycles
 SCF Done:  E(RB3LYP) =  -1868.89350810     A.U. after   17 cycles
 SCF Done:  E(RB3LYP) =  -1868.89288270     A.U. after   16 cycles
 SCF Done:  E(RB3LYP) =  -1868.89588064     A.U. after   15 cycles
 SCF Done:  E(RB3LYP) =  -1868.89600581     A.U. after   17 cycles
 SCF Done:  E(RB3LYP) =  -1868.89601479     A.U. after   14 cycles
 SCF Done:  E(RB3LYP) =  -1868.89603369     A.U. after   15 cycles
 SCF Done:  E(RB3LYP) =  -1868.89603633     A.U. after   13 cycles
 SCF Done:  E(RB3LYP) =  -1868.89603716     A.U. after   13 cycles
 SCF Done:  E(RB3LYP) =  -1868.89603782     A.U. after   12 cycles
 SCF Done:  E(RB3LYP) =  -1868.89603801     A.U. after   11 cycles
 SCF Done:  E(RB3LYP) =  -1868.89603802     A.U. after   10 cycles
 Optimization completed.
    -- Stationary point found.
 Normal termination of Gaussian 16 at Fri May  9 14:21:54 2025.

 ----------------------------------------------------------------------
 #N Geom=AllCheck Guess=TCheck SCRF=Check GenChk RB3LYP/6-31+G(d,p) Fre
 q
 ----------------------------------------------------------------------

 Structure from the checkpoint file:  "sto_lr_adduct_OBn2.chk"
 ------------------------
 sto LR adduct O benzylic
 ------------------------
 Charge =  0 Multiplicity = 1

                         Standard orientation:
 ---------------------------------------------------------------------
 Center     Atomic      Atomic             Coordinates (Angstroms)
 Number     Number       Type             X           Y           Z
 ---------------------------------------------------------------------
      1          6           0        5.892497   -0.121598    0.485876
      2          6           0        4.922709    0.877411    0.593594
      3          6           0        3.564461    0.562683    0.490346
      4          6           0        3.164738   -0.760727    0.275319
      5          6           0        4.142639   -1.762369    0.181492
      6          6           0        5.498654   -1.447158    0.280157
      7          1           0        6.946311    0.127764    0.569428
      8          1           0        6.243276   -2.234686    0.208052
      9          1           0        2.822364    1.347417    0.588360
     10          1           0        5.219137    1.908689    0.761371
     11          1           0        3.844055   -2.798980    0.036602
     12          6           0        1.710654   -1.165339    0.115511
     13          6           0        1.245532   -1.306115   -1.355300
     14          8           0        0.810479   -0.272612    0.804575
     15          1           0        1.569352   -2.138679    0.600321
     16         16           0        0.731778    0.349721   -1.962726
     17          1           0       -2.632924    2.104981   -0.512326
     18         15           0       -0.051480    0.859535   -0.034349
     19          6           0       -2.824869    1.081726   -0.205026
     20         16           0        0.181889    2.730449    0.452623
     21          6           0       -1.752232    0.243688    0.124826
     22          1           0       -4.948803    1.304985   -0.386517
     23          6           0       -4.142526    0.629789   -0.127047
     24          1           0       -6.836727    0.458683    0.745436
     25          6           0       -2.025948   -1.068511    0.553523
     26          6           0       -4.401333   -0.683095    0.294206
     27          1           0       -1.213322   -1.723068    0.848162
     28          6           0       -3.333744   -1.527695    0.639128
     29          6           0       -6.777289   -0.420014    0.092182
     30          8           0       -5.644306   -1.224302    0.410267
     31          1           0       -6.755715   -0.099578   -0.956332
     32          1           0       -7.646620   -1.056313    0.259507
     33          1           0       -3.554473   -2.533350    0.981558
     34          1           0        0.404874   -2.002022   -1.428515
     35          1           0        2.059710   -1.662340   -1.989680
 ---------------------------------------------------------------------

 SCF Done:  E(RB3LYP) =  -1868.89603802     A.U. after    2 cycles

 The electronic state is 1-A.
 Alpha  occ. eigenvalues --  -88.89394 -88.83918 -77.21224 -19.20581 -19.19455
 Alpha  occ. eigenvalues --  -10.28368 -10.27529 -10.25885 -10.24545 -10.21918
 Alpha  occ. eigenvalues --  -10.21812 -10.21667 -10.21187 -10.21129 -10.20848
 Alpha  occ. eigenvalues --  -10.20477 -10.20260 -10.20025 -10.19869 -10.19608
 Alpha  occ. eigenvalues --   -7.95567  -7.90219  -6.66585  -5.92018  -5.91740
 Alpha  occ. eigenvalues --   -5.91043  -5.86777  -5.86051  -5.85909  -4.83039
 Alpha  occ. eigenvalues --   -4.82794  -4.82633  -1.08897  -1.06776  -0.87679
 Alpha  occ. eigenvalues --   -0.86774  -0.82008  -0.80307  -0.77600  -0.76871
 Alpha  occ. eigenvalues --   -0.75386  -0.74895  -0.71392  -0.69413  -0.64163
 Alpha  occ. eigenvalues --   -0.63313  -0.62059  -0.61313  -0.59951  -0.56717
 Alpha  occ. eigenvalues --   -0.55267  -0.53389  -0.50845  -0.50580  -0.49154
 Alpha  occ. eigenvalues --   -0.48787  -0.48702  -0.46742  -0.45615  -0.45227
 Alpha  occ. eigenvalues --   -0.44435  -0.44118  -0.43130  -0.42871  -0.42370
 Alpha  occ. eigenvalues --   -0.40318  -0.39733  -0.38400  -0.38120  -0.37646
 Alpha  occ. eigenvalues --   -0.36067  -0.35809  -0.35274  -0.34851  -0.34660
 Alpha  occ. eigenvalues --   -0.33595  -0.31562  -0.27604  -0.26783  -0.25897
 Alpha  occ. eigenvalues --   -0.25732  -0.24924  -0.24678  -0.22824
 Alpha virt. eigenvalues --   -0.04825  -0.03272  -0.02632  -0.01947  -0.01181
 Alpha virt. eigenvalues --   -0.00629  -0.00403   0.00187   0.00890   0.01353
 Alpha virt. eigenvalues --    0.01874   0.02219   0.02635   0.02975   0.03356

 Mulliken charges:
               1
     1  C   -0.023487
     2  C   -0.348204
     3  C    0.226697
     4  C   -0.254411
     5  C   -0.246517
     6  C   -0.098951
     7  H    0.125575
     8  H    0.126112
     9  H    0.152468
    10  H    0.132459
    11  H    0.112306
    12  C    0.129207
    13  C   -0.699525
    14  O   -0.204163
    15  H    0.139524
    16  S    0.196218
    17  H    0.151157
    18  P    0.040819
    19  C   -0.893580
    20  S   -0.153079
    21  C   -0.031996
    22  H    0.125166
    23  C    0.673950
    24  H    0.149478
    25  C    0.293140
    26  C   -0.191336
    27  H    0.134223
    28  C   -0.131166
    29  C   -0.126511
    30  O   -0.347225
    31  H    0.148166
    32  H    0.154383
    33  H    0.137377
    34  H    0.202818
    35  H    0.198908
 Sum of Mulliken charges =  -0.00000

 Dipole moment (field-independent basis, Debye):
    X=             -2.3594    Y=             -3.9110    Z=             -1.2794  Tot=              4.7434
 Quadrupole moment (field-independent basis, Debye-Ang):
   XX=           -105.1720   YY=           -139.6675   ZZ=           -147.8948
   XY=             -9.0648   XZ=              1.4731   YZ=              0.2250

  Exact polarizability:     345.684       4.105     241.952      -0.854       4.429     163.615
 Approx polarizability:     438.056       9.574     441.822      -4.105       7.049     273.315

                      1                      2                      3
                      A                      A                      A
 Frequencies --     20.8887                25.8217                33.7130
 Red. masses --      4.3493                 3.9096                 5.8028
 Frc consts  --      0.0011                 0.0015                 0.0039
 IR Inten    --      1.0635                 0.0278                 0.3402

                      4                      5                      6
                      A                      A                      A
 Frequencies --     43.0641                69.0705                99.6192
 Red. masses --      5.1561                 4.9750                 6.7132
 Frc consts  --      0.0056                 0.0140                 0.0393
 IR Inten    --      1.3084                 0.2979                 2.1765

                      7                      8                      9
                      A                      A                      A
 Frequencies --    108.6526               145.2661               152.0768
 Red. masses --      5.2969                 5.3866                 5.7938
 Frc consts  --      0.0368                 0.0670                 0.0789
 IR Inten    --      3.3016                 0.1965                 0.4236

                     10                     11                     12
                      A                      A                      A
 Frequencies --    182.5904               188.2412               216.2038
 Red. masses --      4.3417                 5.7805                 3.8271
 Frc consts  --      0.0853                 0.1207                 0.1054
 IR Inten    --      3.7323                 1.0022                 0.4913

                     13                     14                     15
                      A                      A                      A
 Frequencies --    241.5138               247.1284               291.8086
 Red. masses --      2.0134                 2.5893                 4.1325
 Frc consts  --      0.0692                 0.0932                 0.2073
 IR Inten    --      1.2046                 1.6390                 3.0492

                     16                     17                     18
                      A                      A                      A
 Frequencies --    295.9768               334.8547               363.4799
 Red. masses --      3.4959                 6.4361                 8.3742
 Frc consts  --      0.1804                 0.4252                 0.6519
 IR Inten    --      0.5743                 1.9377                17.9705

                     19                     20                     21
                      A                      A                      A
 Frequencies --    394.3755               414.3270               422.3367
 Red. masses --      6.5269                 2.9114                 3.0869
 Frc consts  --      0.5981                 0.2945                 0.3244
 IR Inten    --      6.8743                 0.0505                 1.0358

                     22                     23                     24
                      A                      A                      A
 Frequencies --    428.0013               462.2815               505.4365
 Red. masses --      8.4764                 8.6275                 5.1062
 Frc consts  --      0.9148                 1.0863                 0.7686
 IR Inten    --     21.0264                26.8487                56.0454

                     25                     26                     27
                      A                      A                      A
 Frequencies --    530.7194               541.4414               552.2743
 Red. masses --      2.8390                 3.4357                 4.4725
 Frc consts  --      0.4711                 0.5934                 0.8037
 IR Inten    --     13.4653                14.6439                 8.2785

                     28                     29                     30
                      A                      A                      A
 Frequencies --    621.8213               630.8148               645.1234
 Red. masses --      6.9500                 6.4536                 7.1567
 Frc consts  --      1.5833                 1.5131                 1.7549
 IR Inten    --     41.3493                 3.9612                 4.9736

                     31                     32                     33
                      A                      A                      A
 Frequencies --    661.9484               683.5790               709.1484
 Red. masses --      6.3605                 9.7001                 2.1981
 Frc consts  --      1.6421                 2.6706                 0.6513
 IR Inten    --     28.0941                92.0002                37.3057

                     34                     35                     36
                      A                      A                      A
 Frequencies --    723.8777               733.5085               762.2230
 Red. masses --      3.5846                 3.6727                 2.0093
 Frc consts  --      1.1067                 1.1643                 0.6878
 IR Inten    --     27.1862                 4.5243                35.1063

                     37                     38                     39
                      A                      A                      A
 Frequencies --    780.7306               815.5051               818.0697
 Red. masses --      9.3359                 3.4346                 5.7240
 Frc consts  --      3.3528                 1.3458                 2.2570
 IR Inten    --    166.6588                12.3524                39.0634

                     40                     41                     42
                      A                      A                      A
 Frequencies --    825.4104               844.2137               859.5711
 Red. masses --      1.2793                 1.6470                 1.2494
 Frc consts  --      0.5135                 0.6916                 0.5439
 IR Inten    --      4.9416                37.5508                 0.4204

                     43                     44                     45
                      A                      A                      A
 Frequencies --    920.7126               944.6386               958.7743
 Red. masses --      1.5556                 1.7391                 2.5223
 Frc consts  --      0.7769                 0.9143                 1.3661
 IR Inten    --     13.8538                 3.9964                48.2860

                     46                     47                     48
                      A                      A                      A
 Frequencies --    968.1973               981.1842               986.2837
 Red. masses --      1.3300                 1.3443                 1.3606
 Frc consts  --      0.7346                 0.7625                 0.7798
 IR Inten    --      2.1252                 0.4247                 0.2694

                     49                     50                     51
                      A                      A                      A
 Frequencies --   1007.6696              1013.2537              1022.1049
 Red. masses --      1.2985                 6.0866                 3.1579
 Frc consts  --      0.7768                 3.6818                 1.9437
 IR Inten    --      1.1842                 3.6243                 3.4065

                     52                     53                     54
                      A                      A                      A
 Frequencies --   1035.5038              1053.4771              1059.3054
 Red. masses --      5.1224                 2.2142                 7.1893
 Frc consts  --      3.2361                 1.4478                 4.7531
 IR Inten    --    223.5015                 1.8456                47.2763

                     55                     56                     57
                      A                      A                      A
 Frequencies --   1114.0213              1119.0824              1140.2978
 Red. masses --      1.6485                 3.3271                 1.3214
 Frc consts  --      1.2054                 2.4549                 1.0123
 IR Inten    --     20.2209               133.6949                 8.0539

                     58                     59                     60
                      A                      A                      A
 Frequencies --   1151.7810              1171.3793              1185.3680
 Red. masses --      1.3197                 1.2710                 1.1025
 Frc consts  --      1.0315                 1.0275                 0.9127
 IR Inten    --     14.1284                 0.9023                 0.1056

                     61                     62                     63
                      A                      A                      A
 Frequencies --   1204.8449              1208.1649              1212.6145
 Red. masses --      1.3089                 1.2560                 1.1404
 Frc consts  --      1.1195                 1.0802                 0.9880
 IR Inten    --     14.0301                60.7362                 1.2084

                     64                     65                     66
                      A                      A                      A
 Frequencies --   1232.4920              1252.6677              1295.8500
 Red. masses --      1.8478                 1.3773                 4.0625
 Frc consts  --      1.6538                 1.2733                 4.0194
 IR Inten    --     15.7843                 8.3798               329.5644

                     67                     68                     69
                      A                      A                      A
 Frequencies --   1317.8642              1328.4079              1334.4956
 Red. masses --      1.2771                 1.4434                 2.2694
 Frc consts  --      1.3068                 1.5007                 2.3812
 IR Inten    --     11.7126                 7.3457                29.5838

                     70                     71                     72
                      A                      A                      A
 Frequencies --   1347.7606              1366.1290              1385.6281
 Red. masses --      4.8999                 2.1274                 1.3768
 Frc consts  --      5.2440                 2.3393                 1.5574
 IR Inten    --     39.7570                 2.1478                19.7483

                     73                     74                     75
                      A                      A                      A
 Frequencies --   1444.0070              1478.0951              1480.0495
 Red. masses --      3.0510                 1.0895                 1.1854
 Frc consts  --      3.7483                 1.4025                 1.5300
 IR Inten    --      5.5792                 7.6018                12.5347

                     76                     77                     78
                      A                      A                      A
 Frequencies --   1486.6698              1499.2226              1508.1578
 Red. masses --      2.1694                 1.0460                 1.0563
 Frc consts  --      2.8250                 1.3852                 1.4156
 IR Inten    --      8.9311                 8.9179                45.1054

                     79                     80                     81
                      A                      A                      A
 Frequencies --   1534.7648              1535.5753              1608.1265
 Red. masses --      2.1937                 2.2975                 6.4757
 Frc consts  --      3.0444                 3.1918                 9.8667
 IR Inten    --      4.5071                93.8503                25.8089

                     82                     83                     84
                      A                      A                      A
 Frequencies --   1633.7231              1644.7318              1654.0934
 Red. masses --      5.4504                 5.5942                 5.4351
 Frc consts  --      8.5710                 8.9162                 8.7615
 IR Inten    --      1.6748               187.7853                 1.3151

                     85                     86                     87
                      A                      A                      A
 Frequencies --   3024.2357              3050.0779              3075.3964
 Red. masses --      1.0339                 1.0837                 1.0628
 Frc consts  --      5.5713                 5.9399                 5.9224
 IR Inten    --     62.1971                 9.3638                22.8284

                     88                     89                     90
                      A                      A                      A
 Frequencies --   3091.2683              3143.0803              3158.0729
 Red. masses --      1.1067                 1.1054                 1.1005
 Frc consts  --      6.2312                 6.4343                 6.4669
 IR Inten    --     31.9048                 5.1180                20.3471

                     91                     92                     93
                      A                      A                      A
 Frequencies --   3160.4236              3182.5267              3193.4311
 Red. masses --      1.0880                 1.0869                 1.0916
 Frc consts  --      6.4027                 6.4859                 6.5586
 IR Inten    --      9.8052                 1.9280                20.6476

                     94                     95                     96
                      A                      A                      A
 Frequencies --   3201.6777              3204.4249              3205.1852
 Red. masses --      1.0894                 1.0960                 1.0881
 Frc consts  --      6.5795                 6.6306                 6.5862
 IR Inten    --      0.5541                18.0350                 1.9240

                     97                     98                     99
                      A                      A                      A
 Frequencies --   3215.3772              3220.7155              3227.3137
 Red. masses --      1.0946                 1.0940                 1.0922
 Frc consts  --      6.6678                 6.6859                 6.7025
 IR Inten    --     11.0690                 6.1394                 9.3088

 - Thermochemistry -
 -------------------
 Temperature   298.150 Kelvin.  Pressure   1.00000 Atm.
 Atom     1 has atomic number  6 and mass  12.00000

 Molecular mass:   322.02511 amu.
 Principal axes and moments of inertia in atomic units:
                           1         2         3
     Eigenvalues --  2586.45600********************
           X            0.99999  -0.00387   0.00147
           Y            0.00386   0.99998   0.00389
           Z           -0.00148  -0.00389   0.99999
 This molecule is an asymmetric top.
 Rotational symmetry number  1.
 Warning -- assumption of classical behavior for rotation
           may cause significant error
 Rotational temperatures (Kelvin)      0.03349     0.00608     0.00562
 Rotational constants (GHZ):           0.69777     0.12672     0.11715
 Zero-point vibrational energy     709427.9 (Joules/Mol)
                                  169.55734 (Kcal/Mol)
 Warning -- explicit consideration of  27 degrees of freedom as
           vibrations may cause significant error
 Vibrational temperatures:     30.05    37.15    48.51    61.96    99.38
          (Kelvin)            143.33   156.33   209.01   218.80   262.71
                              270.84   311.07   347.48   355.56   419.85
                              425.84   481.78   522.97   567.42   596.12
                              607.65   615.80   665.12   727.21   763.59
                              779.01   794.60   894.66   907.60   928.19
                              952.40   983.52  1020.31  1041.50  1055.36
                             1096.67  1123.30  1173.33  1177.02  1187.58
                             1214.64  1236.73  1324.70  1359.12  1379.46
                             1393.02  1411.71  1419.04  1449.81  1457.85
                             1470.58  1489.86  1515.72  1524.10  1602.83
                             1610.11  1640.63  1657.16  1685.35  1705.48
                             1733.50  1738.28  1744.68  1773.28  1802.31
                             1864.44  1896.11  1911.28  1920.04  1939.13
                             1965.55  1993.61  2077.60  2126.65  2129.46
                             2138.99  2157.05  2169.90  2208.18  2209.35
                             2313.74  2350.56  2366.40  2379.87  4351.20
                             4388.38  4424.81  4447.65  4522.19  4543.76
                             4547.14  4578.95  4594.64  4606.50  4610.45
                             4611.55  4626.21  4633.89  4643.38

 Zero-point correction=                           0.270207 (Hartree/Particle)
 Thermal correction to Energy=                    0.288884
 Thermal correction to Enthalpy=                  0.289829
 Thermal correction to Gibbs Free Energy=         0.220604
 Sum of electronic and zero-point Energies=          -1868.625831
 Sum of electronic and thermal Energies=             -1868.607154
 Sum of electronic and thermal Enthalpies=           -1868.606209
 Sum of electronic and thermal Free Energies=        -1868.675434

                     E (Thermal)             CV                S
                      KCal/Mol        Cal/Mol-Kelvin    Cal/Mol-Kelvin
 Total                  181.278             71.108            145.696
 Electronic               0.000              0.000              0.000
 Translational            0.889              2.981             43.204
 Rotational               0.889              2.981             34.694
 Vibrational            179.500             65.146             67.798
 Vibration     1          0.593              1.986              6.548
 Vibration     2          0.593              1.985              6.127
 Vibration     3          0.594              1.983              5.598
 Vibration     4          0.595              1.980              5.113
 Vibration     5          0.598              1.969              4.180
 Vibration     6          0.604              1.949              3.462
 Vibration     7          0.606              1.942              3.293
 Vibration     8          0.617              1.908              2.733
 Vibration     9          0.619              1.900              2.646
 Vibration    10          0.630              1.863              2.302
 Vibration    11          0.633              1.856              2.245
 Vibration    12          0.645              1.816              1.991
 Vibration    13          0.658              1.777              1.792
 Vibration    14          0.661              1.768              1.751
 Vibration    15          0.687              1.689              1.463
 Vibration    16          0.690              1.681              1.440
 Vibration    17          0.716              1.606              1.237
 Vibration    18          0.737              1.547              1.107
 Vibration    19          0.761              1.482              0.984
 Vibration    20          0.778              1.439              0.911
 Vibration    21          0.785              1.422              0.884
 Vibration    22          0.790              1.409              0.865
 Vibration    23          0.820              1.334              0.759
 Vibration    24          0.861              1.238              0.645
 Vibration    25          0.886              1.182              0.586
 Vibration    26          0.897              1.158              0.562
 Vibration    27          0.908              1.135              0.539

 Optimization completed.
    -- Stationary point found.
 Normal termination of Gaussian 16 at Fri May  9 14:35:04 2025.
